 Entering Gaussian System, Link 0=g09
 Initial command:
 /usr/local/apps/g09/l1.exe "/wrk/irikura/Gau-27117.inp" -scrdir="/wrk/irikura/"
 Entering Link 1 = /usr/local/apps/g09/l1.exe PID=     27119.
  
 Copyright (c) 1988,1990,1992,1993,1995,1998,2003,2009,2013,
            Gaussian, Inc.  All Rights Reserved.
  
 This is part of the Gaussian(R) 09 program.  It is based on
 the Gaussian(R) 03 system (copyright 2003, Gaussian, Inc.),
 the Gaussian(R) 98 system (copyright 1998, Gaussian, Inc.),
 the Gaussian(R) 94 system (copyright 1995, Gaussian, Inc.),
 the Gaussian 92(TM) system (copyright 1992, Gaussian, Inc.),
 the Gaussian 90(TM) system (copyright 1990, Gaussian, Inc.),
 the Gaussian 88(TM) system (copyright 1988, Gaussian, Inc.),
 the Gaussian 86(TM) system (copyright 1986, Carnegie Mellon
 University), and the Gaussian 82(TM) system (copyright 1983,
 Carnegie Mellon University). Gaussian is a federally registered
 trademark of Gaussian, Inc.
  
 This software contains proprietary and confidential information,
 including trade secrets, belonging to Gaussian, Inc.
  
 This software is provided under written license and may be
 used, copied, transmitted, or stored only in accord with that
 written license.
  
 The following legend is applicable only to US Government
 contracts under FAR:
  
                    RESTRICTED RIGHTS LEGEND
  
 Use, reproduction and disclosure by the US Government is
 subject to restrictions as set forth in subparagraphs (a)
 and (c) of the Commercial Computer Software - Restricted
 Rights clause in FAR 52.227-19.
  
 Gaussian, Inc.
 340 Quinnipiac St., Bldg. 40, Wallingford CT 06492
  
  
 ---------------------------------------------------------------
 Warning -- This program may not be used in any manner that
 competes with the business of Gaussian, Inc. or will provide
 assistance to any competitor of Gaussian, Inc.  The licensee
 of this program is prohibited from giving any competitor of
 Gaussian, Inc. access to this program.  By using this program,
 the user acknowledges that Gaussian, Inc. is engaged in the
 business of creating and licensing software in the field of
 computational chemistry and represents and warrants to the
 licensee that it is not a competitor of Gaussian, Inc. and that
 it will not use this program in any manner prohibited above.
 ---------------------------------------------------------------
  

 Cite this work as:
 Gaussian 09, Revision D.01,
 M. J. Frisch, G. W. Trucks, H. B. Schlegel, G. E. Scuseria, 
 M. A. Robb, J. R. Cheeseman, G. Scalmani, V. Barone, B. Mennucci, 
 G. A. Petersson, H. Nakatsuji, M. Caricato, X. Li, H. P. Hratchian, 
 A. F. Izmaylov, J. Bloino, G. Zheng, J. L. Sonnenberg, M. Hada, 
 M. Ehara, K. Toyota, R. Fukuda, J. Hasegawa, M. Ishida, T. Nakajima, 
 Y. Honda, O. Kitao, H. Nakai, T. Vreven, J. A. Montgomery, Jr., 
 J. E. Peralta, F. Ogliaro, M. Bearpark, J. J. Heyd, E. Brothers, 
 K. N. Kudin, V. N. Staroverov, T. Keith, R. Kobayashi, J. Normand, 
 K. Raghavachari, A. Rendell, J. C. Burant, S. S. Iyengar, J. Tomasi, 
 M. Cossi, N. Rega, J. M. Millam, M. Klene, J. E. Knox, J. B. Cross, 
 V. Bakken, C. Adamo, J. Jaramillo, R. Gomperts, R. E. Stratmann, 
 O. Yazyev, A. J. Austin, R. Cammi, C. Pomelli, J. W. Ochterski, 
 R. L. Martin, K. Morokuma, V. G. Zakrzewski, G. A. Voth, 
 P. Salvador, J. J. Dannenberg, S. Dapprich, A. D. Daniels, 
 O. Farkas, J. B. Foresman, J. V. Ortiz, J. Cioslowski, 
 and D. J. Fox, Gaussian, Inc., Wallingford CT, 2013.
 
 ******************************************
 Gaussian 09:  ES64L-G09RevD.01 24-Apr-2013
                17-May-2017 
 ******************************************
 %chk=ch2.chk
 %nprocs=4
 Will use up to    4 processors via shared memory.
 %mem=1000mw
 ---------------------------------------------------
 # CCSD(T,maxcyc=100)/GEN gfinput geom=check scf=xqc
 ---------------------------------------------------
 1/29=2,38=1/1;
 2/12=2,40=1/2;
 3/5=7,11=9,14=-4,16=1,24=10,25=1,30=1/1,2,3;
 4//1;
 5/5=2,8=3,13=1,38=5/2,8;
 8/6=4,9=120000,10=1/1,4;
 9/5=7,6=100,14=2/13;
 6/7=2,8=2,9=2,10=2/1;
 99/5=1,9=1/99;
 ----------------------------------------------
 BEB step 8: low-spin CCSD(T) for cation of ch2
 ----------------------------------------------
 Structure from the checkpoint file:  "ch2.chk"
 Charge =  1 Multiplicity = 2
 Redundant internal coordinates found in file.
 C,0,0.,0.,0.0661340759
 H,0,0.,-0.9932409277,-0.3639822479
 H,0,0.,0.9932409277,-0.3639822479
 Recover connectivity data from disk.
                          Input orientation:                          
 ---------------------------------------------------------------------
 Center     Atomic      Atomic             Coordinates (Angstroms)
 Number     Number       Type             X           Y           Z
 ---------------------------------------------------------------------
      1          6           0        0.000000    0.000000    0.066134
      2          1           0        0.000000   -0.993241   -0.363982
      3          1           0        0.000000    0.993241   -0.363982
 ---------------------------------------------------------------------
                    Distance matrix (angstroms):
                    1          2          3
     1  C    0.000000
     2  H    1.082371   0.000000
     3  H    1.082371   1.986482   0.000000
 Stoichiometry    CH2(1+,2)
 Framework group  C2V[C2(C),SGV(H2)]
 Deg. of freedom     2
 Full point group                 C2V     NOp   4
 Largest Abelian subgroup         C2V     NOp   4
 Largest concise Abelian subgroup C2      NOp   2
                         Standard orientation:                         
 ---------------------------------------------------------------------
 Center     Atomic      Atomic             Coordinates (Angstroms)
 Number     Number       Type             X           Y           Z
 ---------------------------------------------------------------------
      1          6           0        0.000000    0.000000    0.107529
      2          1           0        0.000000    0.993241   -0.322587
      3          1           0        0.000000   -0.993241   -0.322587
 ---------------------------------------------------------------------
 Rotational constants (GHZ):   1582.9318105    254.1515972    218.9909540
 General basis read from cards:  (5D, 7F)
 AO basis set in the form of general basis input (Overlap normalization):
      1 0
 S   7 1.00       0.000000000000
      0.8236000000D+04  0.5419783203D-03
      0.1235000000D+04  0.4192873817D-02
      0.2808000000D+03  0.2152216205D-01
      0.7927000000D+02  0.8353432195D-01
      0.2559000000D+02  0.2395828457D+00
      0.8997000000D+01  0.4428528419D+00
      0.3319000000D+01  0.3517995618D+00
 S   6 1.00       0.000000000000
      0.2808000000D+03 -0.5949224937D-04
      0.7927000000D+02 -0.1148158310D-02
      0.2559000000D+02 -0.1001913745D-01
      0.8997000000D+01 -0.6121949230D-01
      0.3319000000D+01 -0.1732698541D+00
      0.3643000000D+00  0.1072915192D+01
 S   1 1.00       0.000000000000
      0.9059000000D+00  0.1000000000D+01
 S   1 1.00       0.000000000000
      0.1285000000D+00  0.1000000000D+01
 P   3 1.00       0.000000000000
      0.1871000000D+02  0.3942638716D-01
      0.4133000000D+01  0.2440889849D+00
      0.1200000000D+01  0.8154920089D+00
 P   1 1.00       0.000000000000
      0.3827000000D+00  0.1000000000D+01
 P   1 1.00       0.000000000000
      0.1209000000D+00  0.1000000000D+01
 D   1 1.00       0.000000000000
      0.1097000000D+01  0.1000000000D+01
 D   1 1.00       0.000000000000
      0.3180000000D+00  0.1000000000D+01
 F   1 1.00       0.000000000000
      0.7610000000D+00  0.1000000000D+01
 ****
      2 0
 S   3 1.00       0.000000000000
      0.3387000000D+02  0.2549486323D-01
      0.5095000000D+01  0.1903627659D+00
      0.1159000000D+01  0.8521620222D+00
 S   1 1.00       0.000000000000
      0.3258000000D+00  0.1000000000D+01
 S   1 1.00       0.000000000000
      0.1027000000D+00  0.1000000000D+01
 P   1 1.00       0.000000000000
      0.1407000000D+01  0.1000000000D+01
 P   1 1.00       0.000000000000
      0.3880000000D+00  0.1000000000D+01
 D   1 1.00       0.000000000000
      0.1057000000D+01  0.1000000000D+01
 ****
      3 0
 S   3 1.00       0.000000000000
      0.3387000000D+02  0.2549486323D-01
      0.5095000000D+01  0.1903627659D+00
      0.1159000000D+01  0.8521620222D+00
 S   1 1.00       0.000000000000
      0.3258000000D+00  0.1000000000D+01
 S   1 1.00       0.000000000000
      0.1027000000D+00  0.1000000000D+01
 P   1 1.00       0.000000000000
      0.1407000000D+01  0.1000000000D+01
 P   1 1.00       0.000000000000
      0.3880000000D+00  0.1000000000D+01
 D   1 1.00       0.000000000000
      0.1057000000D+01  0.1000000000D+01
 ****

 There are    27 symmetry adapted cartesian basis functions of A1  symmetry.
 There are     7 symmetry adapted cartesian basis functions of A2  symmetry.
 There are    12 symmetry adapted cartesian basis functions of B1  symmetry.
 There are    19 symmetry adapted cartesian basis functions of B2  symmetry.
 There are    23 symmetry adapted basis functions of A1  symmetry.
 There are     7 symmetry adapted basis functions of A2  symmetry.
 There are    11 symmetry adapted basis functions of B1  symmetry.
 There are    17 symmetry adapted basis functions of B2  symmetry.
    58 basis functions,    86 primitive gaussians,    65 cartesian basis functions
     4 alpha electrons        3 beta electrons
       nuclear repulsion energy         6.1332544348 Hartrees.
 NAtoms=    3 NActive=    3 NUniq=    2 SFac= 2.25D+00 NAtFMM=   60 NAOKFM=F Big=F
 Integral buffers will be    131072 words long.
 Raffenetti 2 integral format.
 Two-electron integral symmetry is turned on.
 One-electron integrals computed using PRISM.
 NBasis=    58 RedAO= T EigKep=  2.61D-03  NBF=    23     7    11    17
 NBsUse=    58 1.00D-06 EigRej= -1.00D+00 NBFU=    23     7    11    17
 ExpMin= 1.03D-01 ExpMax= 8.24D+03 ExpMxC= 2.81D+02 IAcc=1 IRadAn=         1 AccDes= 0.00D+00
 Harris functional with IExCor=  205 and IRadAn=       1 diagonalized for initial guess.
 HarFok:  IExCor=  205 AccDes= 0.00D+00 IRadAn=         1 IDoV= 1 UseB2=F ITyADJ=14
 ICtDFT=  3500011 ScaDFX=  1.000000  1.000000  1.000000  1.000000
 FoFCou: FMM=F IPFlag=           0 FMFlag=      100000 FMFlg1=           0
         NFxFlg=           0 DoJE=T BraDBF=F KetDBF=T FulRan=T
         wScrn=  0.000000 ICntrl=     500 IOpCl=  0 I1Cent=   200000004 NGrid=           0
         NMat0=    1 NMatS0=      1 NMatT0=    0 NMatD0=    1 NMtDS0=    0 NMtDT0=    0
 Petite list used in FoFCou.
 Initial guess orbital symmetries:
 Alpha Orbitals:
       Occupied  (A1) (A1) (B2) (A1)
       Virtual   (B1) (A1) (B2) (A1) (B2) (B1) (A1) (A1) (B2) (A2)
                 (A1) (B1) (B2) (A1) (B1) (B2) (A2) (A1) (B2) (A1)
                 (B1) (A1) (B2) (A1) (B2) (A2) (B1) (A1) (B2) (B1)
                 (A1) (A2) (A1) (B1) (B2) (A1) (B2) (A2) (B1) (A1)
                 (B2) (B2) (A1) (A2) (B1) (A1) (B2) (A2) (B1) (A1)
                 (A1) (B2) (B2) (A1)
 Beta  Orbitals:
       Occupied  (A1) (A1) (B2)
       Virtual   (A1) (B1) (A1) (B2) (A1) (B2) (B1) (A1) (A1) (B2)
                 (A2) (A1) (B1) (B2) (A1) (B1) (B2) (A2) (A1) (B2)
                 (A1) (B1) (A1) (B2) (A1) (B2) (A2) (B1) (A1) (B2)
                 (B1) (A1) (A2) (A1) (B1) (B2) (A1) (B2) (A2) (B1)
                 (A1) (B2) (B2) (A1) (A2) (B1) (A1) (B2) (A2) (B1)
                 (A1) (A1) (B2) (B2) (A1)
 The electronic state of the initial guess is 2-A1.
 Initial guess <Sx>= 0.0000 <Sy>= 0.0000 <Sz>= 0.5000 <S**2>= 0.7500 S= 0.5000
 Keep R1 and R2 ints in memory in symmetry-blocked form, NReq=3449881.
 Requested convergence on RMS density matrix=1.00D-08 within  64 cycles.
 Requested convergence on MAX density matrix=1.00D-06.
 Requested convergence on             energy=1.00D-06.
 No special actions if energy rises.
 SCF Done:  E(UHF) =  -38.5811918401     A.U. after   11 cycles
            NFock= 11  Conv=0.21D-08     -V/T= 2.0002
 <Sx>= 0.0000 <Sy>= 0.0000 <Sz>= 0.5000 <S**2>= 0.7549 S= 0.5024
 <L.S>= 0.000000000000E+00
 Annihilation of the first spin contaminant:
 S**2 before annihilation     0.7549,   after     0.7500
 QCSCF skips out because SCF is already converged.
 ExpMin= 1.03D-01 ExpMax= 8.24D+03 ExpMxC= 2.81D+02 IAcc=3 IRadAn=         5 AccDes= 0.00D+00
 HarFok:  IExCor=  205 AccDes= 0.00D+00 IRadAn=         5 IDoV=-2 UseB2=F ITyADJ=14
 ICtDFT= 12500011 ScaDFX=  1.000000  1.000000  1.000000  1.000000
 Range of M.O.s used for correlation:     2    58
 NBasis=    58 NAE=     4 NBE=     3 NFC=     1 NFV=     0
 NROrb=     57 NOA=     3 NOB=     2 NVA=    54 NVB=    55

 **** Warning!!: The largest alpha MO coefficient is  0.10256576D+02


 **** Warning!!: The largest beta MO coefficient is  0.10253468D+02

 Semi-Direct transformation.
 ModeAB=           4 MOrb=             3 LenV=    1048291994
 LASXX=        68438 LTotXX=       68438 LenRXX=      141786
 LTotAB=       73348 MaxLAS=      260091 LenRXY=           0
 NonZer=      210224 LenScr=      785920 LnRSAI=      260091
 LnScr1=      785920 LExtra=           0 Total=      1973717
 MaxDsk=          -1 SrtSym=           T ITran=            4
 JobTyp=1 Pass  1:  I=   1 to   3.
 (rs|ai) integrals will be sorted in core.
 ModeAB=           4 MOrb=             2 LenV=    1048291994
 LASXX=        46128 LTotXX=       46128 LenRXX=       90038
 LTotAB=       43910 MaxLAS=      173394 LenRXY=           0
 NonZer=      136166 LenScr=      785920 LnRSAI=      173394
 LnScr1=      785920 LExtra=           0 Total=      1835272
 MaxDsk=          -1 SrtSym=           T ITran=            4
 JobTyp=2 Pass  1:  I=   1 to   2.
 (rs|ai) integrals will be sorted in core.
 Spin components of T(2) and E(2):
     alpha-alpha T2 =       0.3038057962D-02 E2=     -0.1027279543D-01
     alpha-beta  T2 =       0.2387561706D-01 E2=     -0.8239313972D-01
     beta-beta   T2 =       0.7074799114D-03 E2=     -0.2277236150D-02
 ANorm=    0.1013716506D+01
 E2 =    -0.9494317131D-01 EUMP2 =    -0.38676135011415D+02
 (S**2,0)=  0.75490D+00           (S**2,1)=  0.75070D+00
 E(PUHF)=      -0.38582959063D+02        E(PMP2)=      -0.38677145730D+02
 Keep R2 and R3 ints in memory in symmetry-blocked form, NReq=3411002.
 Iterations= 100 Convergence= 0.100D-06
 Iteration Nr.   1
 **********************
 DD1Dir will call FoFMem   1 times, MxPair=        16
 NAB=     6 NAA=     3 NBB=     1.
 E(PMP3)=      -0.38692377315D+02
 MP4(R+Q)=  0.15368384D-02
 E3=       -0.15713488D-01        EUMP3=      -0.38691848499D+02
 E4(DQ)=   -0.25960836D-02        UMP4(DQ)=   -0.38694444583D+02
 E4(SDQ)=  -0.29081639D-02        UMP4(SDQ)=  -0.38694756663D+02
 DE(Corr)= -0.10911589     E(Corr)=     -38.690307731    
 NORM(A)=   0.10204935D+01
 Iteration Nr.   2
 **********************
 DD1Dir will call FoFMem   1 times, MxPair=        16
 NAB=     6 NAA=     3 NBB=     1.
 DE(Corr)= -0.11329379     E(CORR)=     -38.694485634     Delta=-4.18D-03
 NORM(A)=   0.10224612D+01
 Iteration Nr.   3
 **********************
 DD1Dir will call FoFMem   1 times, MxPair=        16
 NAB=     6 NAA=     3 NBB=     1.
 DE(Corr)= -0.11439962     E(CORR)=     -38.695591464     Delta=-1.11D-03
 NORM(A)=   0.10229336D+01
 Iteration Nr.   4
 **********************
 DD1Dir will call FoFMem   1 times, MxPair=        16
 NAB=     6 NAA=     3 NBB=     1.
 DE(Corr)= -0.11463491     E(CORR)=     -38.695826755     Delta=-2.35D-04
 NORM(A)=   0.10230157D+01
 Iteration Nr.   5
 **********************
 DD1Dir will call FoFMem   1 times, MxPair=        16
 NAB=     6 NAA=     3 NBB=     1.
 DE(Corr)= -0.11465843     E(CORR)=     -38.695850275     Delta=-2.35D-05
 NORM(A)=   0.10230229D+01
 Iteration Nr.   6
 **********************
 DD1Dir will call FoFMem   1 times, MxPair=        16
 NAB=     6 NAA=     3 NBB=     1.
 DE(Corr)= -0.11465976     E(CORR)=     -38.695851602     Delta=-1.33D-06
 NORM(A)=   0.10230246D+01
 Iteration Nr.   7
 **********************
 DD1Dir will call FoFMem   1 times, MxPair=        16
 NAB=     6 NAA=     3 NBB=     1.
 DE(Corr)= -0.11466022     E(CORR)=     -38.695852060     Delta=-4.58D-07
 NORM(A)=   0.10230250D+01
 Iteration Nr.   8
 **********************
 DD1Dir will call FoFMem   1 times, MxPair=        16
 NAB=     6 NAA=     3 NBB=     1.
 DE(Corr)= -0.11466040     E(CORR)=     -38.695852236     Delta=-1.76D-07
 NORM(A)=   0.10230250D+01
 Iteration Nr.   9
 **********************
 DD1Dir will call FoFMem   1 times, MxPair=        16
 NAB=     6 NAA=     3 NBB=     1.
 DE(Corr)= -0.11466035     E(CORR)=     -38.695852190     Delta= 4.62D-08
 NORM(A)=   0.10230249D+01
 Largest amplitude= 6.48D-02
 Time for triples=        1.48 seconds.
 T4(CCSD)= -0.21582576D-02
 T5(CCSD)=  0.30016336D-04
 CCSD(T)= -0.38697980432D+02

 S**2, projected HF & approx projected MPn energies after annihilation of
 unwanted spin states (see manual for definitions):

 spins       (S**2,0) (S**2,1)    PUHF        PMP2        PMP3        PMP4
 annihilated
 s+1         0.75000  0.75000  -38.582959  -38.677146  -38.692377
 s+1,s+2     0.75000  0.75000  -38.582958  -38.677144  -38.692376

 Discarding MO integrals.

 **********************************************************************

            Population analysis using the SCF density.

 **********************************************************************

 Orbital symmetries:
 Alpha Orbitals:
       Occupied  (A1) (A1) (B2) (A1)
       Virtual   (B1) (A1) (B2) (A1) (B2) (A1) (B1) (A1) (B2) (A2)
                 (A1) (B1) (B2) (A1) (B1) (B2) (A2) (A1) (B2) (A1)
                 (A1) (B1) (B2) (A1) (B2) (B1) (A2) (A1) (B2) (B1)
                 (A1) (A2) (A1) (B1) (B2) (A1) (B2) (A2) (B1) (A1)
                 (B2) (B2) (A2) (A1) (B1) (A1) (B2) (A2) (B1) (A1)
                 (A1) (B2) (B2) (A1)
 Beta  Orbitals:
       Occupied  (A1) (A1) (B2)
       Virtual   (B1) (A1) (A1) (B2) (A1) (B2) (B1) (A1) (A1) (B2)
                 (A2) (A1) (B1) (B2) (A1) (B1) (B2) (A2) (A1) (B2)
                 (A1) (B1) (A1) (B2) (A1) (B2) (A2) (B1) (A1) (B2)
                 (B1) (A1) (A2) (A1) (B1) (B2) (A1) (B2) (A2) (B1)
                 (B2) (A1) (B2) (A2) (A1) (B1) (A1) (B2) (A2) (B1)
                 (A1) (A1) (B2) (B2) (A1)
 The electronic state is 2-A1.
 Alpha  occ. eigenvalues --  -11.74322  -1.30167  -1.00952  -0.85903
 Alpha virt. eigenvalues --   -0.31160  -0.08957  -0.03285   0.10056   0.13455
 Alpha virt. eigenvalues --    0.13938   0.17866   0.31705   0.35026   0.39510
 Alpha virt. eigenvalues --    0.46200   0.47287   0.66761   0.74757   0.83087
 Alpha virt. eigenvalues --    0.90669   0.99333   1.08344   1.18483   1.45904
 Alpha virt. eigenvalues --    1.93925   1.94739   2.02044   2.07609   2.42100
 Alpha virt. eigenvalues --    2.47934   2.48679   2.49904   2.67530   2.68710
 Alpha virt. eigenvalues --    2.74099   2.82432   2.82902   2.87578   2.96422
 Alpha virt. eigenvalues --    3.19601   3.26305   3.42206   3.53580   3.60494
 Alpha virt. eigenvalues --    3.60663   3.80162   3.83921   3.85729   3.91402
 Alpha virt. eigenvalues --    4.47262   4.73254   4.79308   4.85968   5.00042
 Alpha virt. eigenvalues --    5.13493   5.45578   5.61738  10.94582
  Beta  occ. eigenvalues --  -11.71328  -1.21050  -0.98795
  Beta virt. eigenvalues --   -0.27984  -0.24956  -0.08063  -0.02231   0.11269
  Beta virt. eigenvalues --    0.15372   0.19348   0.23568   0.33131   0.38112
  Beta virt. eigenvalues --    0.39828   0.52322   0.52483   0.67569   0.76138
  Beta virt. eigenvalues --    0.83375   0.94057   1.00418   1.10176   1.19598
  Beta virt. eigenvalues --    1.47652   1.96395   2.02312   2.02534   2.12273
  Beta virt. eigenvalues --    2.43260   2.49701   2.52078   2.53855   2.70647
  Beta virt. eigenvalues --    2.71429   2.79156   2.84692   2.87727   2.92649
  Beta virt. eigenvalues --    3.02324   3.20398   3.27242   3.43397   3.54295
  Beta virt. eigenvalues --    3.61176   3.61542   3.80679   3.84281   3.86721
  Beta virt. eigenvalues --    3.91442   4.48660   4.74067   4.79634   4.86972
  Beta virt. eigenvalues --    5.01028   5.14791   5.46958   5.63076  10.96315
          Condensed to atoms (all electrons):
               1          2          3
     1  C    4.798827   0.383530   0.383530
     2  H    0.383530   0.345245  -0.011719
     3  H    0.383530  -0.011719   0.345245
          Atomic-Atomic Spin Densities.
               1          2          3
     1  C    1.010496   0.001668   0.001668
     2  H    0.001668  -0.010727   0.002143
     3  H    0.001668   0.002143  -0.010727
 Mulliken charges and spin densities:
               1          2
     1  C    0.434112   1.013832
     2  H    0.282944  -0.006916
     3  H    0.282944  -0.006916
 Sum of Mulliken charges =   1.00000   1.00000
 Mulliken charges and spin densities with hydrogens summed into heavy atoms:
               1          2
     1  C    1.000000   1.000000
 Electronic spatial extent (au):  <R**2>=             17.1394
 Charge=              1.0000 electrons
 Dipole moment (field-independent basis, Debye):
    X=              0.0000    Y=              0.0000    Z=             -0.5309  Tot=              0.5309
 Quadrupole moment (field-independent basis, Debye-Ang):
   XX=             -4.2857   YY=             -2.6157   ZZ=             -5.3418
   XY=              0.0000   XZ=              0.0000   YZ=              0.0000
 Traceless Quadrupole moment (field-independent basis, Debye-Ang):
   XX=             -0.2046   YY=              1.4654   ZZ=             -1.2608
   XY=              0.0000   XZ=              0.0000   YZ=              0.0000
 Octapole moment (field-independent basis, Debye-Ang**2):
  XXX=              0.0000  YYY=              0.0000  ZZZ=             -0.7288  XYY=              0.0000
  XXY=              0.0000  XXZ=             -0.0268  XZZ=              0.0000  YZZ=              0.0000
  YYZ=             -1.5411  XYZ=              0.0000
 Hexadecapole moment (field-independent basis, Debye-Ang**3):
 XXXX=             -2.9533 YYYY=             -5.9852 ZZZZ=             -6.0906 XXXY=              0.0000
 XXXZ=              0.0000 YYYX=              0.0000 YYYZ=              0.0000 ZZZX=              0.0000
 ZZZY=              0.0000 XXYY=             -2.3189 XXZZ=             -1.4972 YYZZ=             -2.2653
 XXYZ=              0.0000 YYXZ=              0.0000 ZZXY=              0.0000
 N-N= 6.133254434788D+00 E-N=-9.917595184666D+01  KE= 3.857224120402D+01
 Symmetry A1   KE= 3.633859359858D+01
 Symmetry A2   KE= 1.209245893896D-34
 Symmetry B1   KE= 9.381478406421D-33
 Symmetry B2   KE= 2.233647605431D+00
 1\1\GINC-GAMBA\SP\UCCSD(T)-FC\Gen\C1H2(1+,2)\IRIKURA\17-May-2017\0\\# 
 CCSD(T,maxcyc=100)/GEN gfinput geom=check scf=xqc\\BEB step 8: low-spi
 n CCSD(T) for cation of ch2\\1,2\C,0,0.,0.,0.0661340759\H,0,0.,-0.9932
 409277,-0.3639822479\H,0,0.,0.9932409277,-0.3639822479\\Version=ES64L-
 G09RevD.01\State=2-A1\HF=-38.5811918\MP2=-38.676135\MP3=-38.6918485\MP
 4D=-38.6959814\MP4DQ=-38.6944446\PUHF=-38.5829591\PMP2-0=-38.6771457\P
 MP3-0=-38.6923773\MP4SDQ=-38.6947567\CCSD=-38.6958522\CCSD(T)=-38.6979
 804\S2=0.754896\S2-1=0.7507\S2A=0.750009\RMSD=2.065e-09\PG=C02V [C2(C1
 ),SGV(H2)]\\@


 LIVE PURE, SPEAK TRUE, RIGHT WRONG, FOLLOW THE KING...
 ELSE, WHEREFORE BORN......
           IDYLLS OF THE KING, TENNYSON
 Job cpu time:       0 days  0 hours  0 minutes 11.6 seconds.
 File lengths (MBytes):  RWF=     22 Int=      0 D2E=      0 Chk=      1 Scr=      1
 Normal termination of Gaussian 09 at Wed May 17 12:52:46 2017.
