 Entering Gaussian System, Link 0=g09
 Initial command:
 /usr/local/apps/g09/l1.exe "/wrk/irikura/Gau-26659.inp" -scrdir="/wrk/irikura/"
 Entering Link 1 = /usr/local/apps/g09/l1.exe PID=     26661.
  
 Copyright (c) 1988,1990,1992,1993,1995,1998,2003,2009,2013,
            Gaussian, Inc.  All Rights Reserved.
  
 This is part of the Gaussian(R) 09 program.  It is based on
 the Gaussian(R) 03 system (copyright 2003, Gaussian, Inc.),
 the Gaussian(R) 98 system (copyright 1998, Gaussian, Inc.),
 the Gaussian(R) 94 system (copyright 1995, Gaussian, Inc.),
 the Gaussian 92(TM) system (copyright 1992, Gaussian, Inc.),
 the Gaussian 90(TM) system (copyright 1990, Gaussian, Inc.),
 the Gaussian 88(TM) system (copyright 1988, Gaussian, Inc.),
 the Gaussian 86(TM) system (copyright 1986, Carnegie Mellon
 University), and the Gaussian 82(TM) system (copyright 1983,
 Carnegie Mellon University). Gaussian is a federally registered
 trademark of Gaussian, Inc.
  
 This software contains proprietary and confidential information,
 including trade secrets, belonging to Gaussian, Inc.
  
 This software is provided under written license and may be
 used, copied, transmitted, or stored only in accord with that
 written license.
  
 The following legend is applicable only to US Government
 contracts under FAR:
  
                    RESTRICTED RIGHTS LEGEND
  
 Use, reproduction and disclosure by the US Government is
 subject to restrictions as set forth in subparagraphs (a)
 and (c) of the Commercial Computer Software - Restricted
 Rights clause in FAR 52.227-19.
  
 Gaussian, Inc.
 340 Quinnipiac St., Bldg. 40, Wallingford CT 06492
  
  
 ---------------------------------------------------------------
 Warning -- This program may not be used in any manner that
 competes with the business of Gaussian, Inc. or will provide
 assistance to any competitor of Gaussian, Inc.  The licensee
 of this program is prohibited from giving any competitor of
 Gaussian, Inc. access to this program.  By using this program,
 the user acknowledges that Gaussian, Inc. is engaged in the
 business of creating and licensing software in the field of
 computational chemistry and represents and warrants to the
 licensee that it is not a competitor of Gaussian, Inc. and that
 it will not use this program in any manner prohibited above.
 ---------------------------------------------------------------
  

 Cite this work as:
 Gaussian 09, Revision D.01,
 M. J. Frisch, G. W. Trucks, H. B. Schlegel, G. E. Scuseria, 
 M. A. Robb, J. R. Cheeseman, G. Scalmani, V. Barone, B. Mennucci, 
 G. A. Petersson, H. Nakatsuji, M. Caricato, X. Li, H. P. Hratchian, 
 A. F. Izmaylov, J. Bloino, G. Zheng, J. L. Sonnenberg, M. Hada, 
 M. Ehara, K. Toyota, R. Fukuda, J. Hasegawa, M. Ishida, T. Nakajima, 
 Y. Honda, O. Kitao, H. Nakai, T. Vreven, J. A. Montgomery, Jr., 
 J. E. Peralta, F. Ogliaro, M. Bearpark, J. J. Heyd, E. Brothers, 
 K. N. Kudin, V. N. Staroverov, T. Keith, R. Kobayashi, J. Normand, 
 K. Raghavachari, A. Rendell, J. C. Burant, S. S. Iyengar, J. Tomasi, 
 M. Cossi, N. Rega, J. M. Millam, M. Klene, J. E. Knox, J. B. Cross, 
 V. Bakken, C. Adamo, J. Jaramillo, R. Gomperts, R. E. Stratmann, 
 O. Yazyev, A. J. Austin, R. Cammi, C. Pomelli, J. W. Ochterski, 
 R. L. Martin, K. Morokuma, V. G. Zakrzewski, G. A. Voth, 
 P. Salvador, J. J. Dannenberg, S. Dapprich, A. D. Daniels, 
 O. Farkas, J. B. Foresman, J. V. Ortiz, J. Cioslowski, 
 and D. J. Fox, Gaussian, Inc., Wallingford CT, 2013.
 
 ******************************************
 Gaussian 09:  ES64L-G09RevD.01 24-Apr-2013
                17-May-2017 
 ******************************************
 %chk=ch2.chk
 %nprocs=4
 Will use up to    4 processors via shared memory.
 %mem=1000mw
 ---------------------------------------
 # B3LYP/GEN gfinput OPT FREQ scf=xqc 6D
 ---------------------------------------
 1/14=-1,18=20,19=15,26=3,38=1/1,3;
 2/9=110,12=2,17=6,18=5,40=1/2;
 3/5=7,8=2,11=2,16=1,24=10,25=1,30=1,71=1,74=-5/1,2,3;
 4//1;
 5/5=2,8=3,13=1,38=5/2,8;
 6/7=2,8=2,9=2,10=2,28=1/1;
 7//1,2,3,16;
 1/14=-1,18=20,19=15,26=3/3(2);
 2/9=110/2;
 99//99;
 2/9=110/2;
 3/5=7,6=1,8=2,11=2,16=1,25=1,30=1,71=1,74=-5,82=7/1,2,3;
 4/5=5,16=3,69=1/1;
 5/5=2,8=3,13=1,38=5/2,8;
 7//1,2,3,16;
 1/14=-1,18=20,19=15,26=3/3(-5);
 2/9=110/2;
 6/7=2,8=2,9=2,10=2,19=2,28=1/1;
 99/9=1/99;
 ----------------------------------
 BEB step 1: geom and freqs for ch2
 ----------------------------------
 Symbolic Z-matrix:
 Charge =  0 Multiplicity = 3
 C                     0.        0.        0.13237 
 H                     0.       -0.91706  -0.3971 
 H                     0.        0.91706  -0.3971 
 

 GradGradGradGradGradGradGradGradGradGradGradGradGradGradGradGradGradGrad
 Berny optimization.
 Initialization pass.
                           ----------------------------
                           !    Initial Parameters    !
                           ! (Angstroms and Degrees)  !
 --------------------------                            --------------------------
 ! Name  Definition              Value          Derivative Info.                !
 --------------------------------------------------------------------------------
 ! R1    R(1,2)                  1.0589         estimate D2E/DX2                !
 ! R2    R(1,3)                  1.0589         estimate D2E/DX2                !
 ! A1    A(2,1,3)              120.0            estimate D2E/DX2                !
 --------------------------------------------------------------------------------
 Trust Radius=3.00D-01 FncErr=1.00D-07 GrdErr=1.00D-06
 Number of steps in this run=     20 maximum allowed number of steps=    100.
 GradGradGradGradGradGradGradGradGradGradGradGradGradGradGradGradGradGrad

                          Input orientation:                          
 ---------------------------------------------------------------------
 Center     Atomic      Atomic             Coordinates (Angstroms)
 Number     Number       Type             X           Y           Z
 ---------------------------------------------------------------------
      1          6           0        0.000000    0.000000    0.132366
      2          1           0        0.000000   -0.917059   -0.397098
      3          1           0        0.000000    0.917059   -0.397098
 ---------------------------------------------------------------------
                    Distance matrix (angstroms):
                    1          2          3
     1  C    0.000000
     2  H    1.058929   0.000000
     3  H    1.058929   1.834118   0.000000
 Stoichiometry    CH2(3)
 Framework group  C2V[C2(C),SGV(H2)]
 Deg. of freedom     2
 Full point group                 C2V     NOp   4
 Largest Abelian subgroup         C2V     NOp   4
 Largest concise Abelian subgroup C2      NOp   2
                         Standard orientation:                         
 ---------------------------------------------------------------------
 Center     Atomic      Atomic             Coordinates (Angstroms)
 Number     Number       Type             X           Y           Z
 ---------------------------------------------------------------------
      1          6           0        0.000000    0.000000    0.132366
      2          1           0        0.000000    0.917059   -0.397098
      3          1           0        0.000000   -0.917059   -0.397098
 ---------------------------------------------------------------------
 Rotational constants (GHZ):   1044.6255483    298.1311665    231.9373493
 General basis read from cards:  (6D, 7F)
 AO basis set in the form of general basis input (Overlap normalization):
      1 0
 S   6 1.00       0.000000000000
      0.3047524880D+04  0.1834737132D-02
      0.4573695180D+03  0.1403732281D-01
      0.1039486850D+03  0.6884262226D-01
      0.2921015530D+02  0.2321844432D+00
      0.9286662960D+01  0.4679413484D+00
      0.3163926960D+01  0.3623119853D+00
 SP   3 1.00       0.000000000000
      0.7868272350D+01 -0.1193324198D+00  0.6899906659D-01
      0.1881288540D+01 -0.1608541517D+00  0.3164239610D+00
      0.5442492580D+00  0.1143456438D+01  0.7443082909D+00
 SP   1 1.00       0.000000000000
      0.1687144782D+00  0.1000000000D+01  0.1000000000D+01
 D   1 1.00       0.000000000000
      0.8000000000D+00  0.1000000000D+01
 ****
      2 0
 S   3 1.00       0.000000000000
      0.1873113696D+02  0.3349460434D-01
      0.2825394365D+01  0.2347269535D+00
      0.6401216923D+00  0.8137573261D+00
 S   1 1.00       0.000000000000
      0.1612777588D+00  0.1000000000D+01
 ****
      3 0
 S   3 1.00       0.000000000000
      0.1873113696D+02  0.3349460434D-01
      0.2825394365D+01  0.2347269535D+00
      0.6401216923D+00  0.8137573261D+00
 S   1 1.00       0.000000000000
      0.1612777588D+00  0.1000000000D+01
 ****

 There are    10 symmetry adapted cartesian basis functions of A1  symmetry.
 There are     1 symmetry adapted cartesian basis functions of A2  symmetry.
 There are     3 symmetry adapted cartesian basis functions of B1  symmetry.
 There are     5 symmetry adapted cartesian basis functions of B2  symmetry.
 There are    10 symmetry adapted basis functions of A1  symmetry.
 There are     1 symmetry adapted basis functions of A2  symmetry.
 There are     3 symmetry adapted basis functions of B1  symmetry.
 There are     5 symmetry adapted basis functions of B2  symmetry.
    19 basis functions,    36 primitive gaussians,    19 cartesian basis functions
     5 alpha electrons        3 beta electrons
       nuclear repulsion energy         6.2852648200 Hartrees.
 NAtoms=    3 NActive=    3 NUniq=    2 SFac= 2.25D+00 NAtFMM=   60 NAOKFM=F Big=F
 Integral buffers will be    131072 words long.
 Raffenetti 2 integral format.
 Two-electron integral symmetry is turned on.
 One-electron integrals computed using PRISM.
 NBasis=    19 RedAO= T EigKep=  4.91D-02  NBF=    10     1     3     5
 NBsUse=    19 1.00D-06 EigRej= -1.00D+00 NBFU=    10     1     3     5
 ExpMin= 1.61D-01 ExpMax= 3.05D+03 ExpMxC= 4.57D+02 IAcc=1 IRadAn=         1 AccDes= 0.00D+00
 Harris functional with IExCor=  402 and IRadAn=       1 diagonalized for initial guess.
 HarFok:  IExCor=  402 AccDes= 0.00D+00 IRadAn=         1 IDoV= 1 UseB2=F ITyADJ=14
 ICtDFT=  3500011 ScaDFX=  1.000000  1.000000  1.000000  1.000000
 FoFCou: FMM=F IPFlag=           0 FMFlag=      100000 FMFlg1=           0
         NFxFlg=           0 DoJE=T BraDBF=F KetDBF=T FulRan=T
         wScrn=  0.000000 ICntrl=     500 IOpCl=  0 I1Cent=   200000004 NGrid=           0
         NMat0=    1 NMatS0=      1 NMatT0=    0 NMatD0=    1 NMtDS0=    0 NMtDT0=    0
 Petite list used in FoFCou.
 Initial guess orbital symmetries:
 Alpha Orbitals:
       Occupied  (A1) (A1) (B2) (A1) (B1)
       Virtual   (A1) (B2) (A1) (B1) (B2) (A1) (B2) (A1) (A2) (A1)
                 (B1) (A1) (B2) (A1)
 Beta  Orbitals:
       Occupied  (A1) (A1) (B2)
       Virtual   (A1) (B1) (A1) (B2) (A1) (B1) (B2) (A1) (B2) (A1)
                 (A2) (A1) (B1) (A1) (B2) (A1)
 The electronic state of the initial guess is 3-B1.
 Initial guess <Sx>= 0.0000 <Sy>= 0.0000 <Sz>= 1.0000 <S**2>= 2.0000 S= 1.0000
 Keep R1 and R2 ints in memory in symmetry-blocked form, NReq=885949.
 Requested convergence on RMS density matrix=1.00D-08 within  64 cycles.
 Requested convergence on MAX density matrix=1.00D-06.
 Requested convergence on             energy=1.00D-06.
 No special actions if energy rises.
 Integral accuracy reduced to 1.0D-05 until final iterations.
 Initial convergence to 1.0D-05 achieved.  Increase integral accuracy.
 SCF Done:  E(UB3LYP) =  -39.1463089811     A.U. after   11 cycles
            NFock= 11  Conv=0.23D-08     -V/T= 2.0069
 <Sx>= 0.0000 <Sy>= 0.0000 <Sz>= 1.0000 <S**2>= 2.0041 S= 1.0014
 <L.S>= 0.000000000000E+00
 Annihilation of the first spin contaminant:
 S**2 before annihilation     2.0041,   after     2.0000
 QCSCF skips out because SCF is already converged.

 **********************************************************************

            Population analysis using the SCF density.

 **********************************************************************

 Orbital symmetries:
 Alpha Orbitals:
       Occupied  (A1) (A1) (B2) (A1) (B1)
       Virtual   (A1) (B2) (A1) (B1) (B2) (A1) (B2) (A1) (A2) (A1)
                 (B1) (A1) (B2) (A1)
 Beta  Orbitals:
       Occupied  (A1) (A1) (B2)
       Virtual   (A1) (B1) (A1) (B2) (B2) (A1) (B1) (A1) (B2) (A1)
                 (A2) (A1) (B1) (A1) (B2) (A1)
 The electronic state is 3-B1.
 Alpha  occ. eigenvalues --  -10.22124  -0.68301  -0.44059  -0.29307  -0.23802
 Alpha virt. eigenvalues --    0.12922   0.18214   0.52223   0.52695   0.54206
 Alpha virt. eigenvalues --    0.65160   0.91452   0.94020   1.63010   1.63272
 Alpha virt. eigenvalues --    1.64035   2.06957   2.20447   3.97443
  Beta  occ. eigenvalues --  -10.19255  -0.61027  -0.41802
  Beta virt. eigenvalues --   -0.08408  -0.03843   0.14930   0.20436   0.56119
  Beta virt. eigenvalues --    0.59757   0.61723   0.69782   0.94475   0.97991
  Beta virt. eigenvalues --    1.71407   1.76543   1.78721   2.14718   2.26447
  Beta virt. eigenvalues --    4.04760
          Condensed to atoms (all electrons):
               1          2          3
     1  C    5.630595   0.351762   0.351762
     2  H    0.351762   0.524895  -0.043717
     3  H    0.351762  -0.043717   0.524895
          Atomic-Atomic Spin Densities.
               1          2          3
     1  C    2.152782  -0.034551  -0.034551
     2  H   -0.034551  -0.019159   0.011869
     3  H   -0.034551   0.011869  -0.019159
 Mulliken charges and spin densities:
               1          2
     1  C   -0.334119   2.083681
     2  H    0.167060  -0.041840
     3  H    0.167060  -0.041840
 Sum of Mulliken charges =   0.00000   2.00000
 Mulliken charges and spin densities with hydrogens summed into heavy atoms:
               1          2
     1  C    0.000000   2.000000
 Electronic spatial extent (au):  <R**2>=             23.1331
 Charge=              0.0000 electrons
 Dipole moment (field-independent basis, Debye):
    X=              0.0000    Y=              0.0000    Z=             -0.6958  Tot=              0.6958
 Quadrupole moment (field-independent basis, Debye-Ang):
   XX=             -7.7828   YY=             -6.1254   ZZ=             -7.1079
   XY=              0.0000   XZ=              0.0000   YZ=              0.0000
 Traceless Quadrupole moment (field-independent basis, Debye-Ang):
   XX=             -0.7774   YY=              0.8799   ZZ=             -0.1025
   XY=              0.0000   XZ=              0.0000   YZ=              0.0000
 Octapole moment (field-independent basis, Debye-Ang**2):
  XXX=              0.0000  YYY=              0.0000  ZZZ=             -1.0198  XYY=              0.0000
  XXY=              0.0000  XXZ=             -0.3435  XZZ=              0.0000  YZZ=              0.0000
  YYZ=             -0.8963  XYZ=              0.0000
 Hexadecapole moment (field-independent basis, Debye-Ang**3):
 XXXX=             -8.1766 YYYY=            -12.7334 ZZZZ=             -9.3570 XXXY=              0.0000
 XXXZ=              0.0000 YYYX=              0.0000 YYYZ=              0.0000 ZZZX=              0.0000
 ZZZY=              0.0000 XXYY=             -3.7886 XXZZ=             -2.9470 YYZZ=             -3.5895
 XXYZ=              0.0000 YYXZ=              0.0000 ZZXY=              0.0000
 N-N= 6.285264820019D+00 E-N=-1.030888638671D+02  KE= 3.887780647867D+01
 Symmetry A1   KE= 3.566503410084D+01
 Symmetry A2   KE= 1.029390658033D-34
 Symmetry B1   KE= 1.188461294927D+00
 Symmetry B2   KE= 2.024311082901D+00
                          Isotropic Fermi Contact Couplings
        Atom                 a.u.       MegaHertz       Gauss      10(-4) cm-1
     1  C(13)              0.56758     319.03445     113.83942     106.41844
     2  H(1)              -0.00017      -0.38540      -0.13752      -0.12855
     3  H(1)              -0.00017      -0.38540      -0.13752      -0.12855
 --------------------------------------------------------
       Center         ----  Spin Dipole Couplings  ----
                      3XX-RR        3YY-RR        3ZZ-RR
 --------------------------------------------------------
     1   Atom        0.691700     -1.009897      0.318197
     2   Atom       -0.061237      0.097023     -0.035786
     3   Atom       -0.061237      0.097023     -0.035786
 --------------------------------------------------------
                        XY            XZ            YZ
 --------------------------------------------------------
     1   Atom        0.000000      0.000000      0.000000
     2   Atom        0.000000      0.000000     -0.103246
     3   Atom        0.000000      0.000000      0.103246
 --------------------------------------------------------


 ---------------------------------------------------------------------------------
              Anisotropic Spin Dipole Couplings in Principal Axis System
 ---------------------------------------------------------------------------------

       Atom             a.u.   MegaHertz   Gauss  10(-4) cm-1        Axes

              Baa    -1.0099  -135.519   -48.356   -45.204  0.0000  1.0000  0.0000
     1 C(13)  Bbb     0.3182    42.699    15.236    14.243  0.0000  0.0000  1.0000
              Bcc     0.6917    92.820    33.120    30.961  1.0000  0.0000  0.0000
 
              Baa    -0.0921   -49.161   -17.542   -16.398  0.0000  0.4791  0.8778
     2 H(1)   Bbb    -0.0612   -32.673   -11.659   -10.899  1.0000  0.0000  0.0000
              Bcc     0.1534    81.834    29.200    27.297  0.0000  0.8778 -0.4791
 
              Baa    -0.0921   -49.161   -17.542   -16.398  0.0000 -0.4791  0.8778
     3 H(1)   Bbb    -0.0612   -32.673   -11.659   -10.899  1.0000  0.0000  0.0000
              Bcc     0.1534    81.834    29.200    27.297  0.0000  0.8778  0.4791
 

 ---------------------------------------------------------------------------------

 Calling FoFJK, ICntrl=      2127 FMM=F ISym2X=1 I1Cent= 0 IOpClX= 1 NMat=1 NMatS=1 NMatT=0.
 ***** Axes restored to original set *****
 -------------------------------------------------------------------
 Center     Atomic                   Forces (Hartrees/Bohr)
 Number     Number              X              Y              Z
 -------------------------------------------------------------------
      1        6           0.000000000    0.000000000   -0.001199705
      2        1           0.000000000   -0.024828237    0.000599853
      3        1           0.000000000    0.024828237    0.000599853
 -------------------------------------------------------------------
 Cartesian Forces:  Max     0.024828237 RMS     0.011714387

 GradGradGradGradGradGradGradGradGradGradGradGradGradGradGradGradGradGrad
 Berny optimization.
 FormGI is forming the generalized inverse of G from B-inverse, IUseBI=4.
 Internal  Forces:  Max     0.025881248 RMS     0.022868355
 Search for a local minimum.
 Step number   1 out of a maximum of   20
 All quantities printed in internal units (Hartrees-Bohrs-Radians)
 Mixed Optimization -- RFO/linear search
 Second derivative matrix not updated -- first step.
 The second derivative matrix:
                          R1        R2        A1
           R1           0.38665
           R2           0.00000   0.38665
           A1           0.00000   0.00000   0.16000
 ITU=  0
     Eigenvalues ---    0.16000   0.38665   0.38665
 RFO step:  Lambda=-6.31535902D-03 EMin= 1.60000000D-01
 Linear search not attempted -- first point.
 Iteration  1 RMS(Cart)=  0.11355232 RMS(Int)=  0.00542229
 Iteration  2 RMS(Cart)=  0.00411202 RMS(Int)=  0.00000868
 Iteration  3 RMS(Cart)=  0.00000980 RMS(Int)=  0.00000000
 Iteration  4 RMS(Cart)=  0.00000000 RMS(Int)=  0.00000000
 ClnCor:  largest displacement from symmetrization is 1.11D-15 for atom     3.
 Variable       Old X    -DE/DX   Delta X   Delta X   Delta X     New X
                                 (Linear)    (Quad)   (Total)
    R1        2.00109   0.02120   0.00000   0.05395   0.05395   2.05504
    R2        2.00109   0.02120   0.00000   0.05395   0.05395   2.05504
    A1        2.09440   0.02588   0.00000   0.15562   0.15562   2.25001
         Item               Value     Threshold  Converged?
 Maximum Force            0.025881     0.000450     NO 
 RMS     Force            0.022868     0.000300     NO 
 Maximum Displacement     0.121209     0.001800     NO 
 RMS     Displacement     0.112722     0.001200     NO 
 Predicted change in Energy=-3.252533D-03
 GradGradGradGradGradGradGradGradGradGradGradGradGradGradGradGradGradGrad

                          Input orientation:                          
 ---------------------------------------------------------------------
 Center     Atomic      Atomic             Coordinates (Angstroms)
 Number     Number       Type             X           Y           Z
 ---------------------------------------------------------------------
      1          6           0        0.000000    0.000000    0.091984
      2          1           0        0.000000   -0.981200   -0.376907
      3          1           0        0.000000    0.981200   -0.376907
 ---------------------------------------------------------------------
                    Distance matrix (angstroms):
                    1          2          3
     1  C    0.000000
     2  H    1.087480   0.000000
     3  H    1.087480   1.962400   0.000000
 Stoichiometry    CH2(3)
 Framework group  C2V[C2(C),SGV(H2)]
 Deg. of freedom     2
 Full point group                 C2V     NOp   4
 Largest Abelian subgroup         C2V     NOp   4
 Largest concise Abelian subgroup C2      NOp   2
                         Standard orientation:                         
 ---------------------------------------------------------------------
 Center     Atomic      Atomic             Coordinates (Angstroms)
 Number     Number       Type             X           Y           Z
 ---------------------------------------------------------------------
      1          6           0        0.000000    0.000000    0.117223
      2          1           0        0.000000    0.981200   -0.351668
      3          1           0        0.000000   -0.981200   -0.351668
 ---------------------------------------------------------------------
 Rotational constants (GHZ):   1331.9601243    260.4275099    217.8358152
 Basis read from rwf:  (6D, 7F)
 There are    10 symmetry adapted cartesian basis functions of A1  symmetry.
 There are     1 symmetry adapted cartesian basis functions of A2  symmetry.
 There are     3 symmetry adapted cartesian basis functions of B1  symmetry.
 There are     5 symmetry adapted cartesian basis functions of B2  symmetry.
 There are    10 symmetry adapted basis functions of A1  symmetry.
 There are     1 symmetry adapted basis functions of A2  symmetry.
 There are     3 symmetry adapted basis functions of B1  symmetry.
 There are     5 symmetry adapted basis functions of B2  symmetry.
    19 basis functions,    36 primitive gaussians,    19 cartesian basis functions
     5 alpha electrons        3 beta electrons
       nuclear repulsion energy         6.1089641938 Hartrees.
 NAtoms=    3 NActive=    3 NUniq=    2 SFac= 2.25D+00 NAtFMM=   60 NAOKFM=F Big=F
 Integral buffers will be    131072 words long.
 Raffenetti 2 integral format.
 Two-electron integral symmetry is turned on.
 One-electron integrals computed using PRISM.
 NBasis=    19 RedAO= T EigKep=  5.76D-02  NBF=    10     1     3     5
 NBsUse=    19 1.00D-06 EigRej= -1.00D+00 NBFU=    10     1     3     5
 Initial guess from the checkpoint file:  "ch2.chk"
 B after Tr=     0.000000    0.000000    0.000000
         Rot=    1.000000    0.000000    0.000000    0.000000 Ang=   0.00 deg.
 Initial guess orbital symmetries:
 Alpha Orbitals:
       Occupied  (A1) (A1) (B2) (A1) (B1)
       Virtual   (A1) (A1) (A1) (A1) (A1) (A1) (A1) (A2) (B1) (B1)
                 (B2) (B2) (B2) (B2)
 Beta  Orbitals:
       Occupied  (A1) (A1) (B2)
       Virtual   (A1) (A1) (A1) (A1) (A1) (A1) (A1) (A1) (A2) (B1)
                 (B1) (B1) (B2) (B2) (B2) (B2)
 Initial guess <Sx>= 0.0000 <Sy>= 0.0000 <Sz>= 1.0000 <S**2>= 2.0044 S= 1.0015
 ExpMin= 1.61D-01 ExpMax= 3.05D+03 ExpMxC= 4.57D+02 IAcc=1 IRadAn=         1 AccDes= 0.00D+00
 Harris functional with IExCor=  402 and IRadAn=       1 diagonalized for initial guess.
 HarFok:  IExCor=  402 AccDes= 0.00D+00 IRadAn=         1 IDoV= 1 UseB2=F ITyADJ=14
 ICtDFT=  3500011 ScaDFX=  1.000000  1.000000  1.000000  1.000000
 FoFCou: FMM=F IPFlag=           0 FMFlag=      100000 FMFlg1=           0
         NFxFlg=           0 DoJE=T BraDBF=F KetDBF=T FulRan=T
         wScrn=  0.000000 ICntrl=     500 IOpCl=  0 I1Cent=   200000004 NGrid=           0
         NMat0=    1 NMatS0=      1 NMatT0=    0 NMatD0=    1 NMtDS0=    0 NMtDT0=    0
 Petite list used in FoFCou.
 Keep R1 and R2 ints in memory in symmetry-blocked form, NReq=885949.
 Requested convergence on RMS density matrix=1.00D-08 within  64 cycles.
 Requested convergence on MAX density matrix=1.00D-06.
 Requested convergence on             energy=1.00D-06.
 No special actions if energy rises.
 Integral accuracy reduced to 1.0D-05 until final iterations.
 Initial convergence to 1.0D-05 achieved.  Increase integral accuracy.
 SCF Done:  E(UB3LYP) =  -39.1497554971     A.U. after   11 cycles
            NFock= 11  Conv=0.52D-08     -V/T= 2.0092
 <Sx>= 0.0000 <Sy>= 0.0000 <Sz>= 1.0000 <S**2>= 2.0048 S= 1.0016
 <L.S>= 0.000000000000E+00
 Annihilation of the first spin contaminant:
 S**2 before annihilation     2.0048,   after     2.0000
 QCSCF skips out because SCF is already converged.
 Calling FoFJK, ICntrl=      2127 FMM=F ISym2X=1 I1Cent= 0 IOpClX= 1 NMat=1 NMatS=1 NMatT=0.
 ***** Axes restored to original set *****
 -------------------------------------------------------------------
 Center     Atomic                   Forces (Hartrees/Bohr)
 Number     Number              X              Y              Z
 -------------------------------------------------------------------
      1        6           0.000000000    0.000000000   -0.007988740
      2        1           0.000000000    0.000921600    0.003994370
      3        1           0.000000000   -0.000921600    0.003994370
 -------------------------------------------------------------------
 Cartesian Forces:  Max     0.007988740 RMS     0.003290198

 GradGradGradGradGradGradGradGradGradGradGradGradGradGradGradGradGradGrad
 Berny optimization.
 Using GEDIIS/GDIIS optimizer.
 FormGI is forming the generalized inverse of G from B-inverse, IUseBI=4.
 Internal  Forces:  Max     0.006589753 RMS     0.004338531
 Search for a local minimum.
 Step number   2 out of a maximum of   20
 All quantities printed in internal units (Hartrees-Bohrs-Radians)
 Mixed Optimization -- RFO/linear search
 Update second derivatives using D2CorX and points    1    2
 DE= -3.45D-03 DEPred=-3.25D-03 R= 1.06D+00
 TightC=F SS=  1.41D+00  RLast= 1.73D-01 DXNew= 5.0454D-01 5.1995D-01
 Trust test= 1.06D+00 RLast= 1.73D-01 DXMaxT set to 5.05D-01
 The second derivative matrix:
                          R1        R2        A1
           R1           0.41701
           R2           0.03036   0.41701
           A1          -0.00245  -0.00245   0.12567
 ITU=  1  0
 Use linear search instead of GDIIS.
     Eigenvalues ---    0.12563   0.38665   0.44740
 RFO step:  Lambda=-2.91191088D-04 EMin= 1.25629708D-01
 Quartic linear search produced a step of  0.15049.
 Iteration  1 RMS(Cart)=  0.03027063 RMS(Int)=  0.00065788
 Iteration  2 RMS(Cart)=  0.00064686 RMS(Int)=  0.00000003
 Iteration  3 RMS(Cart)=  0.00000003 RMS(Int)=  0.00000000
 ClnCor:  largest displacement from symmetrization is 3.63D-15 for atom     3.
 Variable       Old X    -DE/DX   Delta X   Delta X   Delta X     New X
                                 (Linear)    (Quad)   (Total)
    R1        2.05504  -0.00255   0.00812  -0.01316  -0.00504   2.05000
    R2        2.05504  -0.00255   0.00812  -0.01316  -0.00504   2.05000
    A1        2.25001   0.00659   0.02342   0.03236   0.05578   2.30579
         Item               Value     Threshold  Converged?
 Maximum Force            0.006590     0.000450     NO 
 RMS     Force            0.004339     0.000300     NO 
 Maximum Displacement     0.036066     0.001800     NO 
 RMS     Displacement     0.030012     0.001200     NO 
 Predicted change in Energy=-1.850782D-04
 GradGradGradGradGradGradGradGradGradGradGradGradGradGradGradGradGradGrad

                          Input orientation:                          
 ---------------------------------------------------------------------
 Center     Atomic      Atomic             Coordinates (Angstroms)
 Number     Number       Type             X           Y           Z
 ---------------------------------------------------------------------
      1          6           0        0.000000    0.000000    0.072898
      2          1           0        0.000000   -0.991455   -0.367364
      3          1           0        0.000000    0.991455   -0.367364
 ---------------------------------------------------------------------
                    Distance matrix (angstroms):
                    1          2          3
     1  C    0.000000
     2  H    1.084811   0.000000
     3  H    1.084811   1.982911   0.000000
 Stoichiometry    CH2(3)
 Framework group  C2V[C2(C),SGV(H2)]
 Deg. of freedom     2
 Full point group                 C2V     NOp   4
 Largest Abelian subgroup         C2V     NOp   4
 Largest concise Abelian subgroup C2      NOp   2
                         Standard orientation:                         
 ---------------------------------------------------------------------
 Center     Atomic      Atomic             Coordinates (Angstroms)
 Number     Number       Type             X           Y           Z
 ---------------------------------------------------------------------
      1          6           0        0.000000    0.000000    0.110066
      2          1           0        0.000000    0.991455   -0.330197
      3          1           0        0.000000   -0.991455   -0.330197
 ---------------------------------------------------------------------
 Rotational constants (GHZ):   1510.8102849    255.0678207    218.2251910
 Basis read from rwf:  (6D, 7F)
 There are    10 symmetry adapted cartesian basis functions of A1  symmetry.
 There are     1 symmetry adapted cartesian basis functions of A2  symmetry.
 There are     3 symmetry adapted cartesian basis functions of B1  symmetry.
 There are     5 symmetry adapted cartesian basis functions of B2  symmetry.
 There are    10 symmetry adapted basis functions of A1  symmetry.
 There are     1 symmetry adapted basis functions of A2  symmetry.
 There are     3 symmetry adapted basis functions of B1  symmetry.
 There are     5 symmetry adapted basis functions of B2  symmetry.
    19 basis functions,    36 primitive gaussians,    19 cartesian basis functions
     5 alpha electrons        3 beta electrons
       nuclear repulsion energy         6.1205388484 Hartrees.
 NAtoms=    3 NActive=    3 NUniq=    2 SFac= 2.25D+00 NAtFMM=   60 NAOKFM=F Big=F
 Integral buffers will be    131072 words long.
 Raffenetti 2 integral format.
 Two-electron integral symmetry is turned on.
 One-electron integrals computed using PRISM.
 NBasis=    19 RedAO= T EigKep=  5.87D-02  NBF=    10     1     3     5
 NBsUse=    19 1.00D-06 EigRej= -1.00D+00 NBFU=    10     1     3     5
 Initial guess from the checkpoint file:  "ch2.chk"
 B after Tr=     0.000000    0.000000    0.000000
         Rot=    1.000000    0.000000    0.000000    0.000000 Ang=   0.00 deg.
 Initial guess orbital symmetries:
 Alpha Orbitals:
       Occupied  (A1) (A1) (B2) (A1) (B1)
       Virtual   (A1) (A1) (A1) (A1) (A1) (A1) (A1) (A2) (B1) (B1)
                 (B2) (B2) (B2) (B2)
 Beta  Orbitals:
       Occupied  (A1) (A1) (B2)
       Virtual   (A1) (A1) (A1) (A1) (A1) (A1) (A1) (A1) (A2) (B1)
                 (B1) (B1) (B2) (B2) (B2) (B2)
 Initial guess <Sx>= 0.0000 <Sy>= 0.0000 <Sz>= 1.0000 <S**2>= 2.0049 S= 1.0016
 ExpMin= 1.61D-01 ExpMax= 3.05D+03 ExpMxC= 4.57D+02 IAcc=1 IRadAn=         1 AccDes= 0.00D+00
 Harris functional with IExCor=  402 and IRadAn=       1 diagonalized for initial guess.
 HarFok:  IExCor=  402 AccDes= 0.00D+00 IRadAn=         1 IDoV= 1 UseB2=F ITyADJ=14
 ICtDFT=  3500011 ScaDFX=  1.000000  1.000000  1.000000  1.000000
 FoFCou: FMM=F IPFlag=           0 FMFlag=      100000 FMFlg1=           0
         NFxFlg=           0 DoJE=T BraDBF=F KetDBF=T FulRan=T
         wScrn=  0.000000 ICntrl=     500 IOpCl=  0 I1Cent=   200000004 NGrid=           0
         NMat0=    1 NMatS0=      1 NMatT0=    0 NMatD0=    1 NMtDS0=    0 NMtDT0=    0
 Petite list used in FoFCou.
 Keep R1 and R2 ints in memory in symmetry-blocked form, NReq=885949.
 Requested convergence on RMS density matrix=1.00D-08 within  64 cycles.
 Requested convergence on MAX density matrix=1.00D-06.
 Requested convergence on             energy=1.00D-06.
 No special actions if energy rises.
 Integral accuracy reduced to 1.0D-05 until final iterations.
 Initial convergence to 1.0D-05 achieved.  Increase integral accuracy.
 SCF Done:  E(UB3LYP) =  -39.1499982205     A.U. after   10 cycles
            NFock= 10  Conv=0.27D-08     -V/T= 2.0091
 <Sx>= 0.0000 <Sy>= 0.0000 <Sz>= 1.0000 <S**2>= 2.0051 S= 1.0017
 <L.S>= 0.000000000000E+00
 Annihilation of the first spin contaminant:
 S**2 before annihilation     2.0051,   after     2.0000
 QCSCF skips out because SCF is already converged.
 Calling FoFJK, ICntrl=      2127 FMM=F ISym2X=1 I1Cent= 0 IOpClX= 1 NMat=1 NMatS=1 NMatT=0.
 ***** Axes restored to original set *****
 -------------------------------------------------------------------
 Center     Atomic                   Forces (Hartrees/Bohr)
 Number     Number              X              Y              Z
 -------------------------------------------------------------------
      1        6           0.000000000    0.000000000   -0.002597230
      2        1           0.000000000    0.001185297    0.001298615
      3        1           0.000000000   -0.001185297    0.001298615
 -------------------------------------------------------------------
 Cartesian Forces:  Max     0.002597230 RMS     0.001198530

 GradGradGradGradGradGradGradGradGradGradGradGradGradGradGradGradGradGrad
 Berny optimization.
 Using GEDIIS/GDIIS optimizer.
 FormGI is forming the generalized inverse of G from B-inverse, IUseBI=4.
 Internal  Forces:  Max     0.001610327 RMS     0.001557763
 Search for a local minimum.
 Step number   3 out of a maximum of   20
 All quantities printed in internal units (Hartrees-Bohrs-Radians)
 Mixed Optimization -- RFO/linear search
 Update second derivatives using D2CorX and points    1    2    3
 DE= -2.43D-04 DEPred=-1.85D-04 R= 1.31D+00
 TightC=F SS=  1.41D+00  RLast= 5.62D-02 DXNew= 8.4853D-01 1.6870D-01
 Trust test= 1.31D+00 RLast= 5.62D-02 DXMaxT set to 5.05D-01
 The second derivative matrix:
                          R1        R2        A1
           R1           0.41584
           R2           0.02919   0.41584
           A1           0.02332   0.02332   0.09641
 ITU=  1  1  0
 Use linear search instead of GDIIS.
     Eigenvalues ---    0.09332   0.38665   0.44811
 RFO step:  Lambda=-7.59244236D-06 EMin= 9.33221208D-02
 Quartic linear search produced a step of  0.34992.
 Iteration  1 RMS(Cart)=  0.00947444 RMS(Int)=  0.00007540
 Iteration  2 RMS(Cart)=  0.00007934 RMS(Int)=  0.00000000
 Iteration  3 RMS(Cart)=  0.00000000 RMS(Int)=  0.00000000
 ClnCor:  largest displacement from symmetrization is 2.22D-16 for atom     3.
 Variable       Old X    -DE/DX   Delta X   Delta X   Delta X     New X
                                 (Linear)    (Quad)   (Total)
    R1        2.05000  -0.00161  -0.00176  -0.00285  -0.00461   2.04539
    R2        2.05000  -0.00161  -0.00176  -0.00285  -0.00461   2.04539
    A1        2.30579   0.00145   0.01952  -0.00104   0.01847   2.32427
         Item               Value     Threshold  Converged?
 Maximum Force            0.001610     0.000450     NO 
 RMS     Force            0.001558     0.000300     NO 
 Maximum Displacement     0.012783     0.001800     NO 
 RMS     Displacement     0.009449     0.001200     NO 
 Predicted change in Energy=-1.963904D-05
 GradGradGradGradGradGradGradGradGradGradGradGradGradGradGradGradGradGrad

                          Input orientation:                          
 ---------------------------------------------------------------------
 Center     Atomic      Atomic             Coordinates (Angstroms)
 Number     Number       Type             X           Y           Z
 ---------------------------------------------------------------------
      1          6           0        0.000000    0.000000    0.066134
      2          1           0        0.000000   -0.993241   -0.363982
      3          1           0        0.000000    0.993241   -0.363982
 ---------------------------------------------------------------------
                    Distance matrix (angstroms):
                    1          2          3
     1  C    0.000000
     2  H    1.082371   0.000000
     3  H    1.082371   1.986482   0.000000
 Stoichiometry    CH2(3)
 Framework group  C2V[C2(C),SGV(H2)]
 Deg. of freedom     2
 Full point group                 C2V     NOp   4
 Largest Abelian subgroup         C2V     NOp   4
 Largest concise Abelian subgroup C2      NOp   2
                         Standard orientation:                         
 ---------------------------------------------------------------------
 Center     Atomic      Atomic             Coordinates (Angstroms)
 Number     Number       Type             X           Y           Z
 ---------------------------------------------------------------------
      1          6           0        0.000000    0.000000    0.107529
      2          1           0        0.000000    0.993241   -0.322587
      3          1           0        0.000000   -0.993241   -0.322587
 ---------------------------------------------------------------------
 Rotational constants (GHZ):   1582.9318105    254.1515972    218.9909540
 Basis read from rwf:  (6D, 7F)
 There are    10 symmetry adapted cartesian basis functions of A1  symmetry.
 There are     1 symmetry adapted cartesian basis functions of A2  symmetry.
 There are     3 symmetry adapted cartesian basis functions of B1  symmetry.
 There are     5 symmetry adapted cartesian basis functions of B2  symmetry.
 There are    10 symmetry adapted basis functions of A1  symmetry.
 There are     1 symmetry adapted basis functions of A2  symmetry.
 There are     3 symmetry adapted basis functions of B1  symmetry.
 There are     5 symmetry adapted basis functions of B2  symmetry.
    19 basis functions,    36 primitive gaussians,    19 cartesian basis functions
     5 alpha electrons        3 beta electrons
       nuclear repulsion energy         6.1332544348 Hartrees.
 NAtoms=    3 NActive=    3 NUniq=    2 SFac= 2.25D+00 NAtFMM=   60 NAOKFM=F Big=F
 Integral buffers will be    131072 words long.
 Raffenetti 2 integral format.
 Two-electron integral symmetry is turned on.
 One-electron integrals computed using PRISM.
 NBasis=    19 RedAO= T EigKep=  5.89D-02  NBF=    10     1     3     5
 NBsUse=    19 1.00D-06 EigRej= -1.00D+00 NBFU=    10     1     3     5
 Initial guess from the checkpoint file:  "ch2.chk"
 B after Tr=     0.000000    0.000000    0.000000
         Rot=    1.000000    0.000000    0.000000    0.000000 Ang=   0.00 deg.
 Initial guess orbital symmetries:
 Alpha Orbitals:
       Occupied  (A1) (A1) (B2) (A1) (B1)
       Virtual   (A1) (A1) (A1) (A1) (A1) (A1) (A1) (A2) (B1) (B1)
                 (B2) (B2) (B2) (B2)
 Beta  Orbitals:
       Occupied  (A1) (A1) (B2)
       Virtual   (A1) (A1) (A1) (A1) (A1) (A1) (A1) (A1) (A2) (B1)
                 (B1) (B1) (B2) (B2) (B2) (B2)
 Initial guess <Sx>= 0.0000 <Sy>= 0.0000 <Sz>= 1.0000 <S**2>= 2.0051 S= 1.0017
 Keep R1 and R2 ints in memory in symmetry-blocked form, NReq=885949.
 Requested convergence on RMS density matrix=1.00D-08 within  64 cycles.
 Requested convergence on MAX density matrix=1.00D-06.
 Requested convergence on             energy=1.00D-06.
 No special actions if energy rises.
 SCF Done:  E(UB3LYP) =  -39.1500194610     A.U. after    8 cycles
            NFock=  8  Conv=0.77D-08     -V/T= 2.0089
 <Sx>= 0.0000 <Sy>= 0.0000 <Sz>= 1.0000 <S**2>= 2.0052 S= 1.0017
 <L.S>= 0.000000000000E+00
 Annihilation of the first spin contaminant:
 S**2 before annihilation     2.0052,   after     2.0000
 QCSCF skips out because SCF is already converged.
 Calling FoFJK, ICntrl=      2127 FMM=F ISym2X=1 I1Cent= 0 IOpClX= 1 NMat=1 NMatS=1 NMatT=0.
 ***** Axes restored to original set *****
 -------------------------------------------------------------------
 Center     Atomic                   Forces (Hartrees/Bohr)
 Number     Number              X              Y              Z
 -------------------------------------------------------------------
      1        6           0.000000000    0.000000000   -0.000121811
      2        1           0.000000000    0.000196578    0.000060906
      3        1           0.000000000   -0.000196578    0.000060906
 -------------------------------------------------------------------
 Cartesian Forces:  Max     0.000196578 RMS     0.000105168

 GradGradGradGradGradGradGradGradGradGradGradGradGradGradGradGradGradGrad
 Berny optimization.
 Using GEDIIS/GDIIS optimizer.
 FormGI is forming the generalized inverse of G from B-inverse, IUseBI=4.
 Internal  Forces:  Max     0.000204593 RMS     0.000169099
 Search for a local minimum.
 Step number   4 out of a maximum of   20
 All quantities printed in internal units (Hartrees-Bohrs-Radians)
 Mixed Optimization -- En-DIIS/RFO-DIIS
 Update second derivatives using D2CorX and points    1    2    3    4
 DE= -2.12D-05 DEPred=-1.96D-05 R= 1.08D+00
 TightC=F SS=  1.41D+00  RLast= 1.96D-02 DXNew= 8.4853D-01 5.8774D-02
 Trust test= 1.08D+00 RLast= 1.96D-02 DXMaxT set to 5.05D-01
 The second derivative matrix:
                          R1        R2        A1
           R1           0.39034
           R2           0.00368   0.39034
           A1           0.02225   0.02225   0.09188
 ITU=  1  1  1  0
 Use linear search instead of GDIIS.
     Eigenvalues ---    0.08864   0.38665   0.39726
 RFO step:  Lambda=-1.90426747D-07 EMin= 8.86431990D-02
 Quartic linear search produced a step of  0.02611.
 Iteration  1 RMS(Cart)=  0.00046006 RMS(Int)=  0.00000004
 Iteration  2 RMS(Cart)=  0.00000003 RMS(Int)=  0.00000000
 ClnCor:  largest displacement from symmetrization is 1.03D-15 for atom     1.
 Variable       Old X    -DE/DX   Delta X   Delta X   Delta X     New X
                                 (Linear)    (Quad)   (Total)
    R1        2.04539  -0.00020  -0.00012  -0.00039  -0.00051   2.04488
    R2        2.04539  -0.00020  -0.00012  -0.00039  -0.00051   2.04488
    A1        2.32427  -0.00005   0.00048  -0.00073  -0.00024   2.32402
         Item               Value     Threshold  Converged?
 Maximum Force            0.000205     0.000450     YES
 RMS     Force            0.000169     0.000300     YES
 Maximum Displacement     0.000563     0.001800     YES
 RMS     Displacement     0.000460     0.001200     YES
 Predicted change in Energy=-1.090289D-07
 Optimization completed.
    -- Stationary point found.
                           ----------------------------
                           !   Optimized Parameters   !
                           ! (Angstroms and Degrees)  !
 --------------------------                            --------------------------
 ! Name  Definition              Value          Derivative Info.                !
 --------------------------------------------------------------------------------
 ! R1    R(1,2)                  1.0824         -DE/DX =   -0.0002              !
 ! R2    R(1,3)                  1.0824         -DE/DX =   -0.0002              !
 ! A1    A(2,1,3)              133.1706         -DE/DX =    0.0                 !
 --------------------------------------------------------------------------------
 GradGradGradGradGradGradGradGradGradGradGradGradGradGradGradGradGradGrad

                          Input orientation:                          
 ---------------------------------------------------------------------
 Center     Atomic      Atomic             Coordinates (Angstroms)
 Number     Number       Type             X           Y           Z
 ---------------------------------------------------------------------
      1          6           0        0.000000    0.000000    0.066134
      2          1           0        0.000000   -0.993241   -0.363982
      3          1           0        0.000000    0.993241   -0.363982
 ---------------------------------------------------------------------
                    Distance matrix (angstroms):
                    1          2          3
     1  C    0.000000
     2  H    1.082371   0.000000
     3  H    1.082371   1.986482   0.000000
 Stoichiometry    CH2(3)
 Framework group  C2V[C2(C),SGV(H2)]
 Deg. of freedom     2
 Full point group                 C2V     NOp   4
 Largest Abelian subgroup         C2V     NOp   4
 Largest concise Abelian subgroup C2      NOp   2
                         Standard orientation:                         
 ---------------------------------------------------------------------
 Center     Atomic      Atomic             Coordinates (Angstroms)
 Number     Number       Type             X           Y           Z
 ---------------------------------------------------------------------
      1          6           0        0.000000    0.000000    0.107529
      2          1           0        0.000000    0.993241   -0.322587
      3          1           0        0.000000   -0.993241   -0.322587
 ---------------------------------------------------------------------
 Rotational constants (GHZ):   1582.9318105    254.1515972    218.9909540

 **********************************************************************

            Population analysis using the SCF density.

 **********************************************************************

 Orbital symmetries:
 Alpha Orbitals:
       Occupied  (A1) (A1) (B2) (A1) (B1)
       Virtual   (A1) (B2) (A1) (B1) (B2) (A1) (A1) (B2) (A2) (A1)
                 (B1) (B2) (A1) (A1)
 Beta  Orbitals:
       Occupied  (A1) (A1) (B2)
       Virtual   (A1) (B1) (A1) (B2) (A1) (B2) (B1) (A1) (B2) (A1)
                 (A2) (A1) (B1) (B2) (A1) (A1)
 The electronic state is 3-B1.
 Alpha  occ. eigenvalues --  -10.22197  -0.67366  -0.44973  -0.27263  -0.23586
 Alpha virt. eigenvalues --    0.10845   0.18376   0.52205   0.52769   0.59072
 Alpha virt. eigenvalues --    0.60181   0.90560   0.91980   1.62899   1.64637
 Alpha virt. eigenvalues --    1.64900   2.06880   2.13519   3.96450
  Beta  occ. eigenvalues --  -10.19368  -0.59794  -0.42912
  Beta virt. eigenvalues --   -0.06842  -0.03756   0.13164   0.20301   0.58545
  Beta virt. eigenvalues --    0.61161   0.61731   0.65457   0.94605   0.94751
  Beta virt. eigenvalues --    1.71104   1.78855   1.79622   2.12895   2.20234
  Beta virt. eigenvalues --    4.03687
          Condensed to atoms (all electrons):
               1          2          3
     1  C    5.641893   0.348549   0.348549
     2  H    0.348549   0.515018  -0.033064
     3  H    0.348549  -0.033064   0.515018
          Atomic-Atomic Spin Densities.
               1          2          3
     1  C    2.171967  -0.034228  -0.034228
     2  H   -0.034228  -0.026397   0.008869
     3  H   -0.034228   0.008869  -0.026397
 Mulliken charges and spin densities:
               1          2
     1  C   -0.338992   2.103511
     2  H    0.169496  -0.051756
     3  H    0.169496  -0.051756
 Sum of Mulliken charges =   0.00000   2.00000
 Mulliken charges and spin densities with hydrogens summed into heavy atoms:
               1          2
     1  C    0.000000   2.000000
 Electronic spatial extent (au):  <R**2>=             23.6296
 Charge=              0.0000 electrons
 Dipole moment (field-independent basis, Debye):
    X=              0.0000    Y=              0.0000    Z=             -0.6473  Tot=              0.6473
 Quadrupole moment (field-independent basis, Debye-Ang):
   XX=             -7.8489   YY=             -5.7252   ZZ=             -7.3986
   XY=              0.0000   XZ=              0.0000   YZ=              0.0000
 Traceless Quadrupole moment (field-independent basis, Debye-Ang):
   XX=             -0.8580   YY=              1.2657   ZZ=             -0.4077
   XY=              0.0000   XZ=              0.0000   YZ=              0.0000
 Octapole moment (field-independent basis, Debye-Ang**2):
  XXX=              0.0000  YYY=              0.0000  ZZZ=             -0.8451  XYY=              0.0000
  XXY=              0.0000  XXZ=             -0.2912  XZZ=              0.0000  YZZ=              0.0000
  YYZ=             -0.8578  XYZ=              0.0000
 Hexadecapole moment (field-independent basis, Debye-Ang**3):
 XXXX=             -8.2799 YYYY=            -12.9598 ZZZZ=             -9.0981 XXXY=              0.0000
 XXXZ=              0.0000 YYYX=              0.0000 YYYZ=              0.0000 ZZZX=              0.0000
 ZZZY=              0.0000 XXYY=             -3.9954 XXZZ=             -2.9077 YYZZ=             -3.8152
 XXYZ=              0.0000 YYXZ=              0.0000 ZZXY=              0.0000
 N-N= 6.133254434788D+00 E-N=-1.027510177823D+02  KE= 3.880314129018D+01
 Symmetry A1   KE= 3.563949116572D+01
 Symmetry A2   KE= 1.197231166136D-34
 Symmetry B1   KE= 1.185523982742D+00
 Symmetry B2   KE= 1.978126141717D+00
                          Isotropic Fermi Contact Couplings
        Atom                 a.u.       MegaHertz       Gauss      10(-4) cm-1
     1  C(13)              0.47642     267.79264      95.55507      89.32601
     2  H(1)              -0.00654     -14.62642      -5.21907      -4.87885
     3  H(1)              -0.00654     -14.62642      -5.21907      -4.87885
 --------------------------------------------------------
       Center         ----  Spin Dipole Couplings  ----
                      3XX-RR        3YY-RR        3ZZ-RR
 --------------------------------------------------------
     1   Atom        0.664111     -1.037376      0.373265
     2   Atom       -0.064095      0.116156     -0.052061
     3   Atom       -0.064095      0.116156     -0.052061
 --------------------------------------------------------
                        XY            XZ            YZ
 --------------------------------------------------------
     1   Atom        0.000000      0.000000      0.000000
     2   Atom        0.000000      0.000000     -0.082868
     3   Atom        0.000000      0.000000      0.082868
 --------------------------------------------------------


 ---------------------------------------------------------------------------------
              Anisotropic Spin Dipole Couplings in Principal Axis System
 ---------------------------------------------------------------------------------

       Atom             a.u.   MegaHertz   Gauss  10(-4) cm-1        Axes

              Baa    -1.0374  -139.206   -49.672   -46.434  0.0000  1.0000  0.0000
     1 C(13)  Bbb     0.3733    50.089    17.873    16.708  0.0000  0.0000  1.0000
              Bcc     0.6641    89.117    31.799    29.726  1.0000  0.0000  0.0000
 
              Baa    -0.0860   -45.900   -16.378   -15.310  0.0000  0.3793  0.9253
     2 H(1)   Bbb    -0.0641   -34.198   -12.203   -11.407  1.0000  0.0000  0.0000
              Bcc     0.1501    80.097    28.581    26.718  0.0000  0.9253 -0.3793
 
              Baa    -0.0860   -45.900   -16.378   -15.310  0.0000 -0.3793  0.9253
     3 H(1)   Bbb    -0.0641   -34.198   -12.203   -11.407  1.0000  0.0000  0.0000
              Bcc     0.1501    80.097    28.581    26.718  0.0000  0.9253  0.3793
 

 ---------------------------------------------------------------------------------

 1\1\GINC-GAMBA\FOpt\UB3LYP\Gen\C1H2(3)\IRIKURA\17-May-2017\0\\# B3LYP/
 GEN gfinput OPT FREQ scf=xqc 6D\\BEB step 1: geom and freqs for ch2\\0
 ,3\C,0.,0.,0.0661340759\H,0.,-0.9932409277,-0.3639822479\H,0.,0.993240
 9277,-0.3639822479\\Version=ES64L-G09RevD.01\State=3-B1\HF=-39.1500195
 \S2=2.005232\S2-1=0.\S2A=2.000007\RMSD=7.669e-09\RMSF=1.052e-04\Dipole
 =0.,0.,-0.254656\Quadrupole=-0.6379051,0.9409988,-0.3030937,0.,0.,0.\P
 G=C02V [C2(C1),SGV(H2)]\\@


 We're simply so accustomed to the marvels of everyday thought
 that we never wonder about it.
 -- Marvin Minsky in "Why people think computers are smart"
 Job cpu time:       0 days  0 hours  0 minutes 21.3 seconds.
 File lengths (MBytes):  RWF=      5 Int=      0 D2E=      0 Chk=      1 Scr=      1
 Normal termination of Gaussian 09 at Wed May 17 12:52:27 2017.
 Link1:  Proceeding to internal job step number  2.
 ------------------------------------------------------------------
 #N Geom=AllCheck Guess=TCheck SCRF=Check GenChk UB3LYP/ChkBas Freq
 ------------------------------------------------------------------
 1/10=4,29=7,30=1,38=1,40=1/1,3;
 2/12=2,40=1/2;
 3/5=7,6=2,8=2,11=2,14=-4,16=1,24=10,25=1,30=1,67=1,70=2,71=2,74=-5,82=7,116=2,140=1/1,2,3;
 4/5=101/1;
 5/5=2,8=3,13=1,98=1/2,8;
 8/6=4,10=90,11=11/1;
 11/6=1,8=1,9=11,15=111,16=1/1,2,10;
 10/6=1/2;
 6/7=2,8=2,9=2,10=2,18=1,28=1/1;
 7/8=1,10=1,25=1/1,2,3,16;
 1/10=4,30=1/3;
 99//99;
 Structure from the checkpoint file:  "ch2.chk"
 ----------------------------------
 BEB step 1: geom and freqs for ch2
 ----------------------------------
 Charge =  0 Multiplicity = 3
 Redundant internal coordinates found in file.
 C,0,0.,0.,0.0661340759
 H,0,0.,-0.9932409277,-0.3639822479
 H,0,0.,0.9932409277,-0.3639822479
 Recover connectivity data from disk.

 GradGradGradGradGradGradGradGradGradGradGradGradGradGradGradGradGradGrad
 Berny optimization.
 Initialization pass.
                           ----------------------------
                           !    Initial Parameters    !
                           ! (Angstroms and Degrees)  !
 --------------------------                            --------------------------
 ! Name  Definition              Value          Derivative Info.                !
 --------------------------------------------------------------------------------
 ! R1    R(1,2)                  1.0824         calculate D2E/DX2 analytically  !
 ! R2    R(1,3)                  1.0824         calculate D2E/DX2 analytically  !
 ! A1    A(2,1,3)              133.1706         calculate D2E/DX2 analytically  !
 --------------------------------------------------------------------------------
 Trust Radius=3.00D-01 FncErr=1.00D-07 GrdErr=1.00D-07
 Number of steps in this run=      2 maximum allowed number of steps=      2.
 GradGradGradGradGradGradGradGradGradGradGradGradGradGradGradGradGradGrad

                          Input orientation:                          
 ---------------------------------------------------------------------
 Center     Atomic      Atomic             Coordinates (Angstroms)
 Number     Number       Type             X           Y           Z
 ---------------------------------------------------------------------
      1          6           0        0.000000    0.000000    0.066134
      2          1           0        0.000000   -0.993241   -0.363982
      3          1           0        0.000000    0.993241   -0.363982
 ---------------------------------------------------------------------
                    Distance matrix (angstroms):
                    1          2          3
     1  C    0.000000
     2  H    1.082371   0.000000
     3  H    1.082371   1.986482   0.000000
 Stoichiometry    CH2(3)
 Framework group  C2V[C2(C),SGV(H2)]
 Deg. of freedom     2
 Full point group                 C2V     NOp   4
 Largest Abelian subgroup         C2V     NOp   4
 Largest concise Abelian subgroup C2      NOp   2
                         Standard orientation:                         
 ---------------------------------------------------------------------
 Center     Atomic      Atomic             Coordinates (Angstroms)
 Number     Number       Type             X           Y           Z
 ---------------------------------------------------------------------
      1          6           0        0.000000    0.000000    0.107529
      2          1           0        0.000000    0.993241   -0.322587
      3          1           0        0.000000   -0.993241   -0.322587
 ---------------------------------------------------------------------
 Rotational constants (GHZ):   1582.9318105    254.1515972    218.9909540
 Basis read from chk: "ch2.chk" (6D, 7F)
 AO basis set in the form of general basis input (Overlap normalization):
      1 0
 S   6 1.00       0.000000000000
      0.3047524880D+04  0.1834737132D-02
      0.4573695180D+03  0.1403732281D-01
      0.1039486850D+03  0.6884262226D-01
      0.2921015530D+02  0.2321844432D+00
      0.9286662960D+01  0.4679413484D+00
      0.3163926960D+01  0.3623119853D+00
 SP   3 1.00       0.000000000000
      0.7868272350D+01 -0.1193324198D+00  0.6899906659D-01
      0.1881288540D+01 -0.1608541517D+00  0.3164239610D+00
      0.5442492580D+00  0.1143456438D+01  0.7443082909D+00
 SP   1 1.00       0.000000000000
      0.1687144782D+00  0.1000000000D+01  0.1000000000D+01
 D   1 1.00       0.000000000000
      0.8000000000D+00  0.1000000000D+01
 ****
      2 0
 S   3 1.00       0.000000000000
      0.1873113696D+02  0.3349460434D-01
      0.2825394365D+01  0.2347269535D+00
      0.6401216923D+00  0.8137573261D+00
 S   1 1.00       0.000000000000
      0.1612777588D+00  0.1000000000D+01
 ****
      3 0
 S   3 1.00       0.000000000000
      0.1873113696D+02  0.3349460434D-01
      0.2825394365D+01  0.2347269535D+00
      0.6401216923D+00  0.8137573261D+00
 S   1 1.00       0.000000000000
      0.1612777588D+00  0.1000000000D+01
 ****

 There are    10 symmetry adapted cartesian basis functions of A1  symmetry.
 There are     1 symmetry adapted cartesian basis functions of A2  symmetry.
 There are     3 symmetry adapted cartesian basis functions of B1  symmetry.
 There are     5 symmetry adapted cartesian basis functions of B2  symmetry.
 There are    10 symmetry adapted basis functions of A1  symmetry.
 There are     1 symmetry adapted basis functions of A2  symmetry.
 There are     3 symmetry adapted basis functions of B1  symmetry.
 There are     5 symmetry adapted basis functions of B2  symmetry.
    19 basis functions,    36 primitive gaussians,    19 cartesian basis functions
     5 alpha electrons        3 beta electrons
       nuclear repulsion energy         6.1332544348 Hartrees.
 NAtoms=    3 NActive=    3 NUniq=    2 SFac= 2.25D+00 NAtFMM=   60 NAOKFM=F Big=F
 Integral buffers will be    131072 words long.
 Raffenetti 2 integral format.
 Two-electron integral symmetry is turned on.
 One-electron integrals computed using PRISM.
 NBasis=    19 RedAO= T EigKep=  5.89D-02  NBF=    10     1     3     5
 NBsUse=    19 1.00D-06 EigRej= -1.00D+00 NBFU=    10     1     3     5
 Initial guess from the checkpoint file:  "ch2.chk"
 B after Tr=     0.000000    0.000000    0.000000
         Rot=    1.000000    0.000000    0.000000    0.000000 Ang=   0.00 deg.
 Initial guess orbital symmetries:
 Alpha Orbitals:
       Occupied  (A1) (A1) (B2) (A1) (B1)
       Virtual   (A1) (B2) (A1) (B1) (B2) (A1) (A1) (B2) (A2) (A1)
                 (B1) (B2) (A1) (A1)
 Beta  Orbitals:
       Occupied  (A1) (A1) (B2)
       Virtual   (A1) (B1) (A1) (B2) (A1) (B2) (B1) (A1) (B2) (A1)
                 (A2) (A1) (B1) (B2) (A1) (A1)
 Initial guess <Sx>= 0.0000 <Sy>= 0.0000 <Sz>= 1.0000 <S**2>= 2.0052 S= 1.0017
 Keep R1 and R2 ints in memory in symmetry-blocked form, NReq=885949.
 Requested convergence on RMS density matrix=1.00D-08 within  64 cycles.
 Requested convergence on MAX density matrix=1.00D-06.
 Requested convergence on             energy=1.00D-06.
 No special actions if energy rises.
 SCF Done:  E(UB3LYP) =  -39.1500194610     A.U. after    1 cycles
            NFock=  1  Conv=0.27D-09     -V/T= 2.0089
 <Sx>= 0.0000 <Sy>= 0.0000 <Sz>= 1.0000 <S**2>= 2.0052 S= 1.0017
 <L.S>= 0.000000000000E+00
 Annihilation of the first spin contaminant:
 S**2 before annihilation     2.0052,   after     2.0000
 QCSCF skips out because SCF is already converged.
 DoSCS=F DFT=T ScalE2(SS,OS)=  1.000000  1.000000
 Range of M.O.s used for correlation:     1    19
 NBasis=    19 NAE=     5 NBE=     3 NFC=     0 NFV=     0
 NROrb=     19 NOA=     5 NOB=     3 NVA=    14 NVB=    16
 Symmetrizing basis deriv contribution to polar:
 IMax=3 JMax=2 DiffMx= 0.00D+00
 G2DrvN: will do     4 centers at a time, making    1 passes.
 Calling FoFCou, ICntrl=  3107 FMM=F I1Cent=   0 AccDes= 0.00D+00.
 End of G2Drv F.D. properties file   721 does not exist.
 End of G2Drv F.D. properties file   722 does not exist.
 End of G2Drv F.D. properties file   788 does not exist.
          IDoAtm=111
          Differentiating once with respect to electric field.
                with respect to dipole field.
          Differentiating once with respect to nuclear coordinates.
 Keep R1 and R2 ints in memory in symmetry-blocked form, NReq=877802.
          There are     9 degrees of freedom in the 1st order CPHF.  IDoFFX=4 NUNeed=     9.
      9 vectors produced by pass  0 Test12= 1.31D-15 1.11D-08 XBig12= 1.18D+01 2.03D+00.
 AX will form     9 AO Fock derivatives at one time.
      9 vectors produced by pass  1 Test12= 1.31D-15 1.11D-08 XBig12= 3.26D-01 2.33D-01.
      9 vectors produced by pass  2 Test12= 1.31D-15 1.11D-08 XBig12= 3.39D-03 3.30D-02.
      9 vectors produced by pass  3 Test12= 1.31D-15 1.11D-08 XBig12= 1.07D-05 1.64D-03.
      9 vectors produced by pass  4 Test12= 1.31D-15 1.11D-08 XBig12= 3.98D-08 6.92D-05.
      7 vectors produced by pass  5 Test12= 1.31D-15 1.11D-08 XBig12= 7.82D-11 2.98D-06.
      1 vectors produced by pass  6 Test12= 1.31D-15 1.11D-08 XBig12= 2.49D-14 9.13D-08.
 InvSVY:  IOpt=1 It=  1 EMax= 4.44D-16
 Solved reduced A of dimension    53 with     9 vectors.
 Isotropic polarizability for W=    0.000000        7.76 Bohr**3.
 End of Minotr F.D. properties file   721 does not exist.
 End of Minotr F.D. properties file   722 does not exist.
 End of Minotr F.D. properties file   788 does not exist.

 **********************************************************************

            Population analysis using the SCF density.

 **********************************************************************

 Orbital symmetries:
 Alpha Orbitals:
       Occupied  (A1) (A1) (B2) (A1) (B1)
       Virtual   (A1) (B2) (A1) (B1) (B2) (A1) (A1) (B2) (A2) (A1)
                 (B1) (B2) (A1) (A1)
 Beta  Orbitals:
       Occupied  (A1) (A1) (B2)
       Virtual   (A1) (B1) (A1) (B2) (A1) (B2) (B1) (A1) (B2) (A1)
                 (A2) (A1) (B1) (B2) (A1) (A1)
 The electronic state is 3-B1.
 Alpha  occ. eigenvalues --  -10.22197  -0.67366  -0.44973  -0.27263  -0.23586
 Alpha virt. eigenvalues --    0.10845   0.18376   0.52205   0.52769   0.59072
 Alpha virt. eigenvalues --    0.60181   0.90560   0.91980   1.62899   1.64637
 Alpha virt. eigenvalues --    1.64900   2.06880   2.13519   3.96450
  Beta  occ. eigenvalues --  -10.19368  -0.59794  -0.42912
  Beta virt. eigenvalues --   -0.06842  -0.03756   0.13164   0.20301   0.58545
  Beta virt. eigenvalues --    0.61161   0.61731   0.65457   0.94605   0.94751
  Beta virt. eigenvalues --    1.71104   1.78855   1.79622   2.12895   2.20234
  Beta virt. eigenvalues --    4.03687
          Condensed to atoms (all electrons):
               1          2          3
     1  C    5.641893   0.348549   0.348549
     2  H    0.348549   0.515018  -0.033064
     3  H    0.348549  -0.033064   0.515018
          Atomic-Atomic Spin Densities.
               1          2          3
     1  C    2.171967  -0.034228  -0.034228
     2  H   -0.034228  -0.026397   0.008869
     3  H   -0.034228   0.008869  -0.026397
 Mulliken charges and spin densities:
               1          2
     1  C   -0.338992   2.103511
     2  H    0.169496  -0.051756
     3  H    0.169496  -0.051756
 Sum of Mulliken charges =   0.00000   2.00000
 Mulliken charges and spin densities with hydrogens summed into heavy atoms:
               1          2
     1  C    0.000000   2.000000
 APT charges:
               1
     1  C   -0.146178
     2  H    0.073089
     3  H    0.073089
 Sum of APT charges =   0.00000
 APT charges with hydrogens summed into heavy atoms:
               1
     1  C    0.000000
 Electronic spatial extent (au):  <R**2>=             23.6296
 Charge=              0.0000 electrons
 Dipole moment (field-independent basis, Debye):
    X=              0.0000    Y=              0.0000    Z=             -0.6473  Tot=              0.6473
 Quadrupole moment (field-independent basis, Debye-Ang):
   XX=             -7.8489   YY=             -5.7252   ZZ=             -7.3986
   XY=              0.0000   XZ=              0.0000   YZ=              0.0000
 Traceless Quadrupole moment (field-independent basis, Debye-Ang):
   XX=             -0.8580   YY=              1.2657   ZZ=             -0.4077
   XY=              0.0000   XZ=              0.0000   YZ=              0.0000
 Octapole moment (field-independent basis, Debye-Ang**2):
  XXX=              0.0000  YYY=              0.0000  ZZZ=             -0.8451  XYY=              0.0000
  XXY=              0.0000  XXZ=             -0.2912  XZZ=              0.0000  YZZ=              0.0000
  YYZ=             -0.8578  XYZ=              0.0000
 Hexadecapole moment (field-independent basis, Debye-Ang**3):
 XXXX=             -8.2799 YYYY=            -12.9598 ZZZZ=             -9.0981 XXXY=              0.0000
 XXXZ=              0.0000 YYYX=              0.0000 YYYZ=              0.0000 ZZZX=              0.0000
 ZZZY=              0.0000 XXYY=             -3.9954 XXZZ=             -2.9077 YYZZ=             -3.8152
 XXYZ=              0.0000 YYXZ=              0.0000 ZZXY=              0.0000
 N-N= 6.133254434788D+00 E-N=-1.027510177806D+02  KE= 3.880314129005D+01
 Symmetry A1   KE= 3.563949116821D+01
 Symmetry A2   KE= 1.197231163754D-34
 Symmetry B1   KE= 1.185523979498D+00
 Symmetry B2   KE= 1.978126142344D+00
  Exact polarizability:   4.849   0.000  12.014   0.000   0.000   6.429
 Approx polarizability:   5.414   0.000  13.671   0.000   0.000   7.196
                          Isotropic Fermi Contact Couplings
        Atom                 a.u.       MegaHertz       Gauss      10(-4) cm-1
     1  C(13)              0.47642     267.79264      95.55507      89.32601
     2  H(1)              -0.00654     -14.62642      -5.21907      -4.87885
     3  H(1)              -0.00654     -14.62642      -5.21907      -4.87885
 --------------------------------------------------------
       Center         ----  Spin Dipole Couplings  ----
                      3XX-RR        3YY-RR        3ZZ-RR
 --------------------------------------------------------
     1   Atom        0.664111     -1.037376      0.373265
     2   Atom       -0.064095      0.116156     -0.052061
     3   Atom       -0.064095      0.116156     -0.052061
 --------------------------------------------------------
                        XY            XZ            YZ
 --------------------------------------------------------
     1   Atom        0.000000      0.000000      0.000000
     2   Atom        0.000000      0.000000     -0.082868
     3   Atom        0.000000      0.000000      0.082868
 --------------------------------------------------------


 ---------------------------------------------------------------------------------
              Anisotropic Spin Dipole Couplings in Principal Axis System
 ---------------------------------------------------------------------------------

       Atom             a.u.   MegaHertz   Gauss  10(-4) cm-1        Axes

              Baa    -1.0374  -139.206   -49.672   -46.434  0.0000  1.0000  0.0000
     1 C(13)  Bbb     0.3733    50.089    17.873    16.708  0.0000  0.0000  1.0000
              Bcc     0.6641    89.117    31.799    29.726  1.0000  0.0000  0.0000
 
              Baa    -0.0860   -45.900   -16.378   -15.310  0.0000  0.3793  0.9253
     2 H(1)   Bbb    -0.0641   -34.198   -12.203   -11.407  1.0000  0.0000  0.0000
              Bcc     0.1501    80.097    28.581    26.718  0.0000  0.9253 -0.3793
 
              Baa    -0.0860   -45.900   -16.378   -15.310  0.0000 -0.3793  0.9253
     3 H(1)   Bbb    -0.0641   -34.198   -12.203   -11.407  1.0000  0.0000  0.0000
              Bcc     0.1501    80.097    28.581    26.718  0.0000  0.9253  0.3793
 

 ---------------------------------------------------------------------------------

 Calling FoFJK, ICntrl=    100127 FMM=F ISym2X=1 I1Cent= 0 IOpClX= 1 NMat=1 NMatS=1 NMatT=0.
 Full mass-weighted force constant matrix:
 Low frequencies ---   -0.0007    0.0006    0.0014   49.8006   50.2157   51.1890
 Low frequencies --- 1108.3489 3153.5215 3380.4770
 Diagonal vibrational polarizability:
        0.0000000       0.0035664       0.1769993
 Harmonic frequencies (cm**-1), IR intensities (KM/Mole), Raman scattering
 activities (A**4/AMU), depolarization ratios for plane and unpolarized
 incident light, reduced masses (AMU), force constants (mDyne/A),
 and normal coordinates:
                      1                      2                      3
                     A1                     A1                     B2
 Frequencies --   1108.3489              3153.5215              3380.4770
 Red. masses --      1.1351                 1.0280                 1.1369
 Frc consts  --      0.8216                 6.0230                 7.6545
 IR Inten    --      7.8730                 1.6731                 1.5144
  Atom  AN      X      Y      Z        X      Y      Z        X      Y      Z
     1   6     0.00   0.00   0.11     0.00   0.00   0.04     0.00   0.11   0.00
     2   1     0.00  -0.29  -0.64     0.00   0.66  -0.25     0.00  -0.65   0.28
     3   1     0.00   0.29  -0.64     0.00  -0.66  -0.25     0.00  -0.65  -0.28

 -------------------
 - Thermochemistry -
 -------------------
 Temperature   298.150 Kelvin.  Pressure   1.00000 Atm.
 Atom     1 has atomic number  6 and mass  12.00000
 Atom     2 has atomic number  1 and mass   1.00783
 Atom     3 has atomic number  1 and mass   1.00783
 Molecular mass:    14.01565 amu.
 Principal axes and moments of inertia in atomic units:
                           1         2         3
     Eigenvalues --     1.14013   7.10104   8.24117
           X            0.00000   0.00000   1.00000
           Y            1.00000   0.00000   0.00000
           Z            0.00000   1.00000   0.00000
 This molecule is an asymmetric top.
 Rotational symmetry number  2.
 Rotational temperatures (Kelvin)     75.96865    12.19734    10.50990
 Rotational constants (GHZ):        1582.93181   254.15160   218.99095
 Zero-point vibrational energy      45711.4 (Joules/Mol)
                                   10.92528 (Kcal/Mol)
 Vibrational temperatures:   1594.66  4537.21  4863.75
          (Kelvin)
 
 Zero-point correction=                           0.017411 (Hartree/Particle)
 Thermal correction to Energy=                    0.020267
 Thermal correction to Enthalpy=                  0.021211
 Thermal correction to Gibbs Free Energy=        -0.000979
 Sum of electronic and zero-point Energies=            -39.132609
 Sum of electronic and thermal Energies=               -39.129752
 Sum of electronic and thermal Enthalpies=             -39.128808
 Sum of electronic and thermal Free Energies=          -39.150998
 
                     E (Thermal)             CV                S
                      KCal/Mol        Cal/Mol-Kelvin    Cal/Mol-Kelvin
 Total                   12.718              6.235             46.703
 Electronic               0.000              0.000              2.183
 Translational            0.889              2.981             33.861
 Rotational               0.889              2.981             10.599
 Vibrational             10.940              0.273              0.060
                       Q            Log10(Q)             Ln(Q)
 Total Bot       0.281991D+01          0.450236          1.036706
 Total V=0       0.287419D+09          8.458515         19.476450
 Vib (Bot)       0.985805D-08         -8.006209        -18.434978
 Vib (V=0)       0.100478D+01          0.002070          0.004767
 Electronic      0.300000D+01          0.477121          1.098612
 Translational   0.206241D+07          6.314375         14.539386
 Rotational      0.462326D+02          1.664948          3.833685
 ***** Axes restored to original set *****
 -------------------------------------------------------------------
 Center     Atomic                   Forces (Hartrees/Bohr)
 Number     Number              X              Y              Z
 -------------------------------------------------------------------
      1        6           0.000000000    0.000000000   -0.000121811
      2        1           0.000000000    0.000196578    0.000060905
      3        1           0.000000000   -0.000196578    0.000060905
 -------------------------------------------------------------------
 Cartesian Forces:  Max     0.000196578 RMS     0.000105168
 FormGI is forming the generalized inverse of G from B-inverse, IUseBI=4.

 GradGradGradGradGradGradGradGradGradGradGradGradGradGradGradGradGradGrad
 Berny optimization.
 Internal  Forces:  Max     0.000204593 RMS     0.000169099
 Search for a local minimum.
 Step number   1 out of a maximum of    2
 All quantities printed in internal units (Hartrees-Bohrs-Radians)
 Second derivative matrix not updated -- analytic derivatives used.
 The second derivative matrix:
                          R1        R2        A1
           R1           0.37622
           R2          -0.00561   0.37622
           A1           0.01573   0.01573   0.08700
 ITU=  0
     Eigenvalues ---    0.08527   0.37234   0.38183
 Angle between quadratic step and forces=  14.39 degrees.
 Linear search not attempted -- first point.
 Iteration  1 RMS(Cart)=  0.00051396 RMS(Int)=  0.00000005
 Iteration  2 RMS(Cart)=  0.00000004 RMS(Int)=  0.00000000
 ClnCor:  largest displacement from symmetrization is 9.99D-19 for atom     1.
 Variable       Old X    -DE/DX   Delta X   Delta X   Delta X     New X
                                 (Linear)    (Quad)   (Total)
    R1        2.04539  -0.00020   0.00000  -0.00054  -0.00054   2.04485
    R2        2.04539  -0.00020   0.00000  -0.00054  -0.00054   2.04485
    A1        2.32427  -0.00005   0.00000  -0.00033  -0.00033   2.32394
         Item               Value     Threshold  Converged?
 Maximum Force            0.000205     0.000450     YES
 RMS     Force            0.000169     0.000300     YES
 Maximum Displacement     0.000627     0.001800     YES
 RMS     Displacement     0.000514     0.001200     YES
 Predicted change in Energy=-1.175549D-07
 Optimization completed.
    -- Stationary point found.
                           ----------------------------
                           !   Optimized Parameters   !
                           ! (Angstroms and Degrees)  !
 --------------------------                            --------------------------
 ! Name  Definition              Value          Derivative Info.                !
 --------------------------------------------------------------------------------
 ! R1    R(1,2)                  1.0824         -DE/DX =   -0.0002              !
 ! R2    R(1,3)                  1.0824         -DE/DX =   -0.0002              !
 ! A1    A(2,1,3)              133.1706         -DE/DX =    0.0                 !
 --------------------------------------------------------------------------------
 GradGradGradGradGradGradGradGradGradGradGradGradGradGradGradGradGradGrad

 1\1\GINC-GAMBA\Freq\UB3LYP\Gen\C1H2(3)\IRIKURA\17-May-2017\0\\#N Geom=
 AllCheck Guess=TCheck SCRF=Check GenChk UB3LYP/ChkBas Freq\\BEB step 1
 : geom and freqs for ch2\\0,3\C,0.,0.,0.0661340759\H,0.,-0.9932409277,
 -0.3639822479\H,0.,0.9932409277,-0.3639822479\\Version=ES64L-G09RevD.0
 1\State=3-B1\HF=-39.1500195\S2=2.005232\S2-1=0.\S2A=2.000007\RMSD=2.74
 7e-10\RMSF=1.052e-04\ZeroPoint=0.0174105\Thermal=0.0202672\Dipole=0.,0
 .,-0.254656\DipoleDeriv=-0.3133304,0.,0.,0.,0.0047078,0.,0.,0.,-0.1299
 103,0.1566652,0.,0.,0.,-0.0023539,0.0025383,0.,-0.0688733,0.0649552,0.
 1566652,0.,0.,0.,-0.0023539,-0.0025383,0.,0.0688733,0.0649552\Polar=4.
 8486883,0.,12.0137562,0.,0.,6.4287101\PG=C02V [C2(C1),SGV(H2)]\NImag=0
 \\0.00017113,0.,0.64307603,0.,0.,0.16484908,-0.00008557,0.,0.,0.000090
 08,0.,-0.32153802,-0.10942848,0.,0.32570395,0.,-0.13922387,-0.08242454
 ,0.,0.12432617,0.07140959,-0.00008557,0.,0.,-0.00000451,0.,0.,0.000090
 08,0.,-0.32153802,0.10942848,0.,-0.00416593,0.01489770,0.,0.32570395,0
 .,0.13922387,-0.08242454,0.,-0.01489770,0.01101495,0.,-0.12432617,0.07
 140959\\0.,0.,0.00012181,0.,-0.00019658,-0.00006091,0.,0.00019658,-0.0
 0006091\\\@


 IF AT FIRST YOU DON'T SUCCEED, TRY, TRY AGAIN.
 THEN GIVE UP;
 THERE'S NO USE BEING A DAMN FOOL ABOUT IT.

                                 -- W. C. FIELDS
 Job cpu time:       0 days  0 hours  0 minutes 10.4 seconds.
 File lengths (MBytes):  RWF=      5 Int=      0 D2E=      0 Chk=      1 Scr=      1
 Normal termination of Gaussian 09 at Wed May 17 12:52:30 2017.
