 Entering Gaussian System, Link 0=g09
 AtFile(1): t_plusd.gbs
            -Al     0
            S   13   1.00
             205500.0000000              0.678836D-04
              30780.0000000              0.527149D-03
               7006.0000000              0.276203D-02
               1985.0000000              0.114728D-01
                649.1000000              0.398188D-01
                235.0000000              0.115040D+00
                 91.6200000              0.260887D+00
                 37.6700000              0.396386D+00
                 15.9100000              0.284597D+00
                  5.8500000              0.444583D-01
                  2.5420000             -0.489838D-02
                  1.0570000              0.261253D-02
                  0.1455000              0.722068D-03
            S   13   1.00
             205500.0000000             -0.176377D-04
              30780.0000000             -0.137195D-03
               7006.0000000             -0.718910D-03
               1985.0000000             -0.301146D-02
                649.1000000             -0.106014D-01
                235.0000000             -0.321345D-01
                 91.6200000             -0.803156D-01
                 37.6700000             -0.156794D+00
                 15.9100000             -0.168376D+00
                  5.8500000              0.126879D+00
                  2.5420000              0.561494D+00
                  1.0570000              0.436613D+00
                  0.1455000             -0.114563D-01
            S   13   1.00
             205500.0000000              0.407315D-05
              30780.0000000              0.316566D-04
               7006.0000000              0.166116D-03
               1985.0000000              0.694992D-03
                649.1000000              0.245511D-02
                235.0000000              0.744598D-02
                 91.6200000              0.188253D-01
                 37.6700000              0.372772D-01
                 15.9100000              0.419496D-01
                  5.8500000             -0.354375D-01
                  2.5420000             -0.175132D+00
                  1.0570000             -0.276203D+00
                  0.1455000              0.652809D+00
            S   1   1.00
                  0.2931000              1.0000000
            S   1   1.00
                  0.0565000              1.0000000
            P   7   1.00
                444.4000000              0.162786D-02
                105.1000000              0.130687D-01
                 33.4700000              0.612341D-01
                 12.3300000              0.187870D+00
                  4.8690000              0.360452D+00
                  1.9610000              0.408454D+00
                  0.1888000              0.976514D-02
            P   7   1.00
                444.4000000             -0.286341D-03
                105.1000000             -0.242308D-02
                 33.4700000             -0.108658D-01
                 12.3300000             -0.364307D-01
                  4.8690000             -0.641074D-01
                  1.9610000             -0.972239D-01
                  0.1888000              0.503448D+00
            P   1   1.00
                  0.7834000              1.0000000
            P   1   1.00
                  0.0555700              1.0000000
            D   1   1.00
                  1.5700000              1.0000000
            D   1   1.00
                  0.3330000              1.0000000
            D   1   1.00
                  0.1110000              1.0000000
            F   1   1.00
                  0.2440000              1.0000000
            ****
            -Si     0
            S   13   1.00
             254900.0000000              0.625101D-04
              38190.0000000              0.485553D-03
               8690.0000000              0.254516D-02
               2462.0000000              0.105866D-01
                804.8000000              0.368787D-01
                291.3000000              0.107479D+00
                113.6000000              0.247936D+00
                 46.7500000              0.390927D+00
                 19.8200000              0.302026D+00
                  7.7080000              0.559236D-01
                  3.3400000             -0.402406D-02
                  1.4020000              0.258030D-02
                  0.2070000              0.607930D-03
            S   13   1.00
             254900.0000000             -0.166370D-04
              38190.0000000             -0.129310D-03
               8690.0000000             -0.678828D-03
               2462.0000000             -0.284117D-02
                804.8000000             -0.100551D-01
                291.3000000             -0.305774D-01
                113.6000000             -0.777256D-01
                 46.7500000             -0.154236D+00
                 19.8200000             -0.180368D+00
                  7.7080000              0.798218D-01
                  3.3400000              0.547441D+00
                  1.4020000              0.480119D+00
                  0.2070000             -0.106996D-01
            S   13   1.00
             254900.0000000              0.426257D-05
              38190.0000000              0.331062D-04
               8690.0000000              0.174015D-03
               2462.0000000              0.727574D-03
                804.8000000              0.258333D-02
                291.3000000              0.786354D-02
                113.6000000              0.202155D-01
                 46.7500000              0.407320D-01
                 19.8200000              0.499358D-01
                  7.7080000             -0.249396D-01
                  3.3400000             -0.190350D+00
                  1.4020000             -0.318350D+00
                  0.2070000              0.681180D+00
            S   1   1.00
                  0.4387000              1.0000000
            S   1   1.00
                  0.0794400              1.0000000
            P   7   1.00
                481.5000000              0.192045D-02
                113.9000000              0.153552D-01
                 36.2300000              0.713991D-01
                 13.3400000              0.213052D+00
                  5.2520000              0.390354D+00
                  2.1200000              0.393721D+00
                  0.2528000              0.395630D-02
            P   7   1.00
                481.5000000             -0.405220D-03
                113.9000000             -0.335896D-02
                 36.2300000             -0.152860D-01
                 13.3400000             -0.489218D-01
                  5.2520000             -0.855008D-01
                  2.1200000             -0.112137D+00
                  0.2528000              0.551919D+00
            P   1   1.00
                  0.8561000              1.0000000
            P   1   1.00
                  0.0788900              1.0000000
            D   1   1.00
                  2.3030000              1.0000000
            D   1   1.00
                  0.4760000              1.0000000
            D   1   1.00
                  0.1600000              1.0000000
            F   1   1.00
                  0.3360000              1.0000000
            ****
            -P     0
            S   13   1.00
             312400.0000000              0.576960D-04
              46800.0000000              0.448296D-03
              10650.0000000              0.234939D-02
               3018.0000000              0.978265D-02
                986.8000000              0.341467D-01
                357.4000000              0.100204D+00
                139.6000000              0.234372D+00
                 57.6300000              0.382434D+00
                 24.6000000              0.318088D+00
                 10.1200000              0.707788D-01
                  4.2830000             -0.181799D-02
                  1.8050000              0.216180D-02
                  0.2782000              0.432297D-03
            S   13   1.00
             312400.0000000             -0.156709D-04
              46800.0000000             -0.121724D-03
              10650.0000000             -0.639672D-03
               3018.0000000             -0.267426D-02
                986.8000000             -0.949831D-02
                357.4000000             -0.289349D-01
                139.6000000             -0.745121D-01
                 57.6300000             -0.149938D+00
                 24.6000000             -0.189467D+00
                 10.1200000              0.363270D-01
                  4.2830000              0.528816D+00
                  1.8050000              0.519115D+00
                  0.2782000             -0.925695D-02
            S   13   1.00
             312400.0000000              0.430631D-05
              46800.0000000              0.334194D-04
              10650.0000000              0.175885D-03
               3018.0000000              0.734340D-03
                986.8000000              0.261775D-02
                357.4000000              0.797852D-02
                139.6000000              0.207940D-01
                 57.6300000              0.424446D-01
                 24.6000000              0.563436D-01
                 10.1200000             -0.127358D-01
                  4.2830000             -0.196495D+00
                  1.8050000             -0.353555D+00
                  0.2782000              0.700912D+00
            S   1   1.00
                  0.6158000              1.0000000
            S   1   1.00
                  0.1055000              1.0000000
            P   7   1.00
                504.9000000              0.233728D-02
                119.4000000              0.185410D-01
                 37.9600000              0.849693D-01
                 13.9500000              0.244615D+00
                  5.4570000              0.422766D+00
                  2.1770000              0.368439D+00
                  0.2877000             -0.379005D-02
            P   7   1.00
                504.9000000             -0.555236D-03
                119.4000000             -0.445913D-02
                 37.9600000             -0.206350D-01
                 13.9500000             -0.617694D-01
                  5.4570000             -0.108924D+00
                  2.1770000             -0.105599D+00
                  0.2877000              0.576981D+00
            P   1   1.00
                  0.8010000              1.0000000
            P   1   1.00
                  0.0971400              1.0000000
            D   1   1.00
                  3.1200000              1.0000000
            D   1   1.00
                  0.6480000              1.0000000
            D   1   1.00
                  0.2180000              1.0000000
            F   1   1.00
                  0.4520000              1.0000000
            ****
            -S     0
            S   13   1.00
             374100.0000000              0.542140D-04
              56050.0000000              0.420855D-03
              12760.0000000              0.220698D-02
               3615.0000000              0.919258D-02
               1183.0000000              0.321123D-01
                428.8000000              0.946683D-01
                167.8000000              0.223630D+00
                 69.4700000              0.374393D+00
                 29.8400000              0.329108D+00
                 12.7200000              0.847038D-01
                  5.2440000              0.440851D-03
                  2.2190000              0.164827D-02
                  0.3490000              0.301306D-03
            S   13   1.00
             374100.0000000             -0.149837D-04
              56050.0000000             -0.116198D-03
              12760.0000000             -0.611583D-03
               3615.0000000             -0.255370D-02
               1183.0000000             -0.908708D-02
                428.8000000             -0.277045D-01
                167.8000000             -0.720020D-01
                 69.4700000             -0.146439D+00
                 29.8400000             -0.195150D+00
                 12.7200000              0.819193D-02
                  5.2440000              0.516601D+00
                  2.2190000              0.542178D+00
                  0.3490000             -0.918072D-02
            S   13   1.00
             374100.0000000              0.435066D-05
              56050.0000000              0.337140D-04
              12760.0000000              0.177674D-03
               3615.0000000              0.741116D-03
               1183.0000000              0.264591D-02
                428.8000000              0.807487D-02
                167.8000000              0.212276D-01
                 69.4700000              0.438323D-01
                 29.8400000              0.612716D-01
                 12.7200000             -0.361510D-02
                  5.2440000             -0.204510D+00
                  2.2190000             -0.381871D+00
                  0.3490000              0.714147D+00
            S   1   1.00
                  0.7767000              1.0000000
            S   1   1.00
                  0.1322000              1.0000000
            P   7   1.00
                574.4000000              0.242264D-02
                135.8000000              0.192796D-01
                 43.1900000              0.885401D-01
                 15.8700000              0.254654D+00
                  6.2080000              0.433984D+00
                  2.4830000              0.354953D+00
                  0.3229000             -0.502977D-02
            P   7   1.00
                574.4000000             -0.620102D-03
                135.8000000             -0.493882D-02
                 43.1900000             -0.232647D-01
                 15.8700000             -0.685195D-01
                  6.2080000             -0.123896D+00
                  2.4830000             -0.969499D-01
                  0.3229000              0.569394D+00
            P   1   1.00
                  0.8688000              1.0000000
            P   1   1.00
                  0.1098000              1.0000000
            D   1   1.00
                  3.7560000              1.0000000
            D   1   1.00
                  0.8120000              1.0000000
            D   1   1.00
                  0.2730000              1.0000000
            F   1   1.00
                  0.5570000              1.0000000
            ****
            -Cl     0
            S   13   1.00
             456100.0000000              0.492970D-04
              68330.0000000              0.383029D-03
              15550.0000000              0.200854D-02
               4405.0000000              0.838558D-02
               1439.0000000              0.294703D-01
                520.4000000              0.878325D-01
                203.1000000              0.211473D+00
                 83.9600000              0.365364D+00
                 36.2000000              0.340884D+00
                 15.8300000              0.102133D+00
                  6.3340000              0.311675D-02
                  2.6940000              0.105751D-02
                  0.4313000              0.156136D-03
            S   13   1.00
             456100.0000000             -0.138304D-04
              68330.0000000             -0.107279D-03
              15550.0000000             -0.565083D-03
               4405.0000000             -0.236135D-02
               1439.0000000             -0.845886D-02
                520.4000000             -0.259638D-01
                203.1000000             -0.686362D-01
                 83.9600000             -0.141874D+00
                 36.2000000             -0.199319D+00
                 15.8300000             -0.195662D-01
                  6.3340000              0.499741D+00
                  2.6940000              0.563736D+00
                  0.4313000             -0.835091D-02
            S   13   1.00
             456100.0000000              0.418546D-05
              68330.0000000              0.324395D-04
              15550.0000000              0.171105D-03
               4405.0000000              0.714176D-03
               1439.0000000              0.256705D-02
                520.4000000              0.788552D-02
                203.1000000              0.210867D-01
                 83.9600000              0.442264D-01
                 36.2000000              0.651670D-01
                 15.8300000              0.603012D-02
                  6.3340000             -0.206495D+00
                  2.6940000             -0.405871D+00
                  0.4313000              0.725661D+00
            S   1   1.00
                  0.9768000              1.0000000
            S   1   1.00
                  0.1625000              1.0000000
            P   7   1.00
                663.3000000              0.240448D-02
                156.8000000              0.192148D-01
                 49.9800000              0.885097D-01
                 18.4200000              0.256020D+00
                  7.2400000              0.436927D+00
                  2.9220000              0.350334D+00
                  0.3818000             -0.458423D-02
            P   7   1.00
                663.3000000             -0.652145D-03
                156.8000000             -0.519445D-02
                 49.9800000             -0.246938D-01
                 18.4200000             -0.728167D-01
                  7.2400000             -0.134030D+00
                  2.9220000             -0.947742D-01
                  0.3818000              0.564667D+00
            P   1   1.00
                  1.0220000              1.0000000
            P   1   1.00
                  0.1301000              1.0000000
            D   1   1.00
                  4.6100000              1.0000000
            D   1   1.00
                  1.0110000              1.0000000
            D   1   1.00
                  0.3390000              1.0000000
            F   1   1.00
                  0.7060000              1.0000000
            ****
            -Ar     0
            S   13   1.00
             545000.0000000              0.455828D-04
              81640.0000000              0.354108D-03
              18580.0000000              0.185797D-02
               5261.0000000              0.776851D-02
               1717.0000000              0.274232D-01
                619.9000000              0.823836D-01
                241.6000000              0.201230D+00
                 99.7900000              0.356781D+00
                 43.1500000              0.349563D+00
                 19.1400000              0.118266D+00
                  7.4880000              0.560190D-02
                  3.2050000              0.483473D-03
                  0.5204000              0.292025D-04
            S   13   1.00
             545000.0000000             -0.129551D-04
              81640.0000000             -0.100428D-03
              18580.0000000             -0.529583D-03
               5261.0000000             -0.221396D-02
               1717.0000000             -0.796845D-02
                619.9000000             -0.245803D-01
                241.6000000             -0.657798D-01
                 99.7900000             -0.137942D+00
                 43.1500000             -0.201630D+00
                 19.1400000             -0.412834D-01
                  7.4880000              0.484680D+00
                  3.2050000              0.579224D+00
                  0.5204000             -0.727553D-02
            S   13   1.00
             545000.0000000              0.404990D-05
              81640.0000000              0.313691D-04
              18580.0000000              0.165646D-03
               5261.0000000              0.691662D-03
               1717.0000000              0.249790D-02
                619.9000000              0.771074D-02
                241.6000000              0.208714D-01
                 99.7900000              0.443965D-01
                 43.1500000              0.680224D-01
                 19.1400000              0.141350D-01
                  7.4880000             -0.207489D+00
                  3.2050000             -0.425045D+00
                  0.5204000              0.733627D+00
            S   1   1.00
                  1.1960000              1.0000000
            S   1   1.00
                  0.1954000              1.0000000
            P   7   1.00
                761.8000000              0.236976D-02
                180.2000000              0.190199D-01
                 57.5000000              0.880807D-01
                 21.2400000              0.256377D+00
                  8.3880000              0.438711D+00
                  3.4160000              0.347569D+00
                  0.4523000             -0.523882D-02
            P   7   1.00
                761.8000000             -0.667211D-03
                180.2000000             -0.532717D-02
                 57.5000000             -0.255494D-01
                 21.2400000             -0.757197D-01
                  8.3880000             -0.141133D+00
                  3.4160000             -0.932768D-01
                  0.4523000              0.562450D+00
            P   1   1.00
                  1.2060000              1.0000000
            P   1   1.00
                  0.1545000              1.0000000
            D   1   1.00
                  5.5510000              1.0000000
            D   1   1.00
                  1.2350000              1.0000000
            D   1   1.00
                  0.4120000              1.0000000
            F   1   1.00
                  0.8900000              1.0000000
            ****
 Initial command:
 /usr/local/apps/g09/l1.exe "/wrk/irikura/Gau-29593.inp" -scrdir="/wrk/irikura/"
 Entering Link 1 = /usr/local/apps/g09/l1.exe PID=     29595.
  
 Copyright (c) 1988,1990,1992,1993,1995,1998,2003,2009,2013,
            Gaussian, Inc.  All Rights Reserved.
  
 This is part of the Gaussian(R) 09 program.  It is based on
 the Gaussian(R) 03 system (copyright 2003, Gaussian, Inc.),
 the Gaussian(R) 98 system (copyright 1998, Gaussian, Inc.),
 the Gaussian(R) 94 system (copyright 1995, Gaussian, Inc.),
 the Gaussian 92(TM) system (copyright 1992, Gaussian, Inc.),
 the Gaussian 90(TM) system (copyright 1990, Gaussian, Inc.),
 the Gaussian 88(TM) system (copyright 1988, Gaussian, Inc.),
 the Gaussian 86(TM) system (copyright 1986, Carnegie Mellon
 University), and the Gaussian 82(TM) system (copyright 1983,
 Carnegie Mellon University). Gaussian is a federally registered
 trademark of Gaussian, Inc.
  
 This software contains proprietary and confidential information,
 including trade secrets, belonging to Gaussian, Inc.
  
 This software is provided under written license and may be
 used, copied, transmitted, or stored only in accord with that
 written license.
  
 The following legend is applicable only to US Government
 contracts under FAR:
  
                    RESTRICTED RIGHTS LEGEND
  
 Use, reproduction and disclosure by the US Government is
 subject to restrictions as set forth in subparagraphs (a)
 and (c) of the Commercial Computer Software - Restricted
 Rights clause in FAR 52.227-19.
  
 Gaussian, Inc.
 340 Quinnipiac St., Bldg. 40, Wallingford CT 06492
  
  
 ---------------------------------------------------------------
 Warning -- This program may not be used in any manner that
 competes with the business of Gaussian, Inc. or will provide
 assistance to any competitor of Gaussian, Inc.  The licensee
 of this program is prohibited from giving any competitor of
 Gaussian, Inc. access to this program.  By using this program,
 the user acknowledges that Gaussian, Inc. is engaged in the
 business of creating and licensing software in the field of
 computational chemistry and represents and warrants to the
 licensee that it is not a competitor of Gaussian, Inc. and that
 it will not use this program in any manner prohibited above.
 ---------------------------------------------------------------
  

 Cite this work as:
 Gaussian 09, Revision D.01,
 M. J. Frisch, G. W. Trucks, H. B. Schlegel, G. E. Scuseria, 
 M. A. Robb, J. R. Cheeseman, G. Scalmani, V. Barone, B. Mennucci, 
 G. A. Petersson, H. Nakatsuji, M. Caricato, X. Li, H. P. Hratchian, 
 A. F. Izmaylov, J. Bloino, G. Zheng, J. L. Sonnenberg, M. Hada, 
 M. Ehara, K. Toyota, R. Fukuda, J. Hasegawa, M. Ishida, T. Nakajima, 
 Y. Honda, O. Kitao, H. Nakai, T. Vreven, J. A. Montgomery, Jr., 
 J. E. Peralta, F. Ogliaro, M. Bearpark, J. J. Heyd, E. Brothers, 
 K. N. Kudin, V. N. Staroverov, T. Keith, R. Kobayashi, J. Normand, 
 K. Raghavachari, A. Rendell, J. C. Burant, S. S. Iyengar, J. Tomasi, 
 M. Cossi, N. Rega, J. M. Millam, M. Klene, J. E. Knox, J. B. Cross, 
 V. Bakken, C. Adamo, J. Jaramillo, R. Gomperts, R. E. Stratmann, 
 O. Yazyev, A. J. Austin, R. Cammi, C. Pomelli, J. W. Ochterski, 
 R. L. Martin, K. Morokuma, V. G. Zakrzewski, G. A. Voth, 
 P. Salvador, J. J. Dannenberg, S. Dapprich, A. D. Daniels, 
 O. Farkas, J. B. Foresman, J. V. Ortiz, J. Cioslowski, 
 and D. J. Fox, Gaussian, Inc., Wallingford CT, 2013.
 
 ******************************************
 Gaussian 09:  ES64L-G09RevD.01 24-Apr-2013
                17-May-2017 
 ******************************************
 %chk=gacl.chk
 %nprocs=4
 Will use up to    4 processors via shared memory.
 %mem=1000mw
 ---------------------------------------------------------------
 # CCSD(T,maxcyc=100)/GEN gfinput geom=check scf=xqc guess=check
 ---------------------------------------------------------------
 1/29=2,38=1/1;
 2/12=2,40=1/2;
 3/5=7,11=9,14=-4,16=1,24=10,25=1,30=1,116=-2/1,2,3;
 4/5=1/1;
 5/5=2,8=3,13=1,38=6/2,8;
 8/6=4,9=120000,10=1/1,4;
 9/5=7,6=100,14=2/13;
 6/7=2,8=2,9=2,10=2/1;
 99/5=1,9=1/99;
 --------------------------------------------------
 BEB step 9: high-spin CCSD(T) for dication of gacl
 --------------------------------------------------
 Structure from the checkpoint file:  "gacl.chk"
 Charge =  2 Multiplicity = 3
 Redundant internal coordinates found in file.
 Ga,0,0.,0.,-0.0254811392
 Cl,0,0.,0.,2.2254811392
 Recover connectivity data from disk.
                          Input orientation:                          
 ---------------------------------------------------------------------
 Center     Atomic      Atomic             Coordinates (Angstroms)
 Number     Number       Type             X           Y           Z
 ---------------------------------------------------------------------
      1         31           0        0.000000    0.000000   -0.025481
      2         17           0        0.000000    0.000000    2.225481
 ---------------------------------------------------------------------
 Stoichiometry    ClGa(2+,3)
 Framework group  C*V[C*(ClGa)]
 Deg. of freedom     1
 Full point group                 C*V     NOp   4
 Largest Abelian subgroup         C2V     NOp   4
 Largest concise Abelian subgroup C1      NOp   1
                         Standard orientation:                         
 ---------------------------------------------------------------------
 Center     Atomic      Atomic             Coordinates (Angstroms)
 Number     Number       Type             X           Y           Z
 ---------------------------------------------------------------------
      1         31           0        0.000000    0.000000    0.797216
      2         17           0        0.000000    0.000000   -1.453746
 ---------------------------------------------------------------------
 Rotational constants (GHZ):      0.0000000      4.2994334      4.2994334
 General basis read from cards:  (5D, 7F)
 AO basis set in the form of general basis input (Overlap normalization):
      1 0
 S  15 1.00       0.000000000000
      0.6558157300D+07  0.8008158027D-05
      0.9820253400D+06  0.6226278094D-04
      0.2234676900D+06  0.3273299377D-03
      0.6328829100D+05  0.1380793013D-02
      0.2064294000D+05  0.5004370434D-02
      0.7450522400D+04  0.1607692206D-01
      0.2905074400D+04  0.4606058007D-01
      0.1204210000D+04  0.1153491383D+00
      0.5243045400D+03  0.2376839604D+00
      0.2374656300D+03  0.3537401788D+00
      0.1105786600D+03  0.2922010177D+00
      0.5137462400D+02  0.8117474810D-01
      0.2444084600D+02 -0.8103897110D-03
      0.5342119000D+01 -0.1174682719D-02
      0.1098773000D+01 -0.3050261631D-03
 S  12 1.00       0.000000000000
      0.2064294000D+05 -0.6354902797D-05
      0.7450522400D+04 -0.5966111341D-04
      0.2905074400D+04 -0.5017938212D-03
      0.1204210000D+04 -0.3044525486D-02
      0.5243045400D+03 -0.1528444937D-01
      0.2374656300D+03 -0.5422389487D-01
      0.1105786600D+03 -0.1049468607D+00
      0.5137462400D+02  0.3504138848D-01
      0.2444084600D+02  0.4735531539D+00
      0.1176859100D+02  0.5058759776D+00
      0.5342119000D+01  0.1058933575D+00
      0.1098773000D+01  0.2234606541D-02
 S  10 1.00       0.000000000000
      0.2905074400D+04 -0.6413695214D-05
      0.5243045400D+03 -0.4371154884D-04
      0.2374656300D+03  0.5357181274D-03
      0.1105786600D+03  0.2434072131D-02
      0.5137462400D+02  0.1496755558D-02
      0.2444084600D+02 -0.7846014673D-01
      0.1176859100D+02 -0.2302922104D+00
      0.5342119000D+01  0.1257404213D+00
      0.2495036000D+01  0.6680396045D+00
      0.1098773000D+01  0.4023067114D+00
 S   9 1.00       0.000000000000
      0.5243045400D+03 -0.1465725853D-04
      0.2374656300D+03  0.6723704040D-04
      0.5137462400D+02  0.3425122349D-03
      0.2444084600D+02 -0.5157399849D-02
      0.1176859100D+02 -0.1799234894D-01
      0.5342119000D+01  0.2033733900D-01
      0.2495036000D+01  0.2277564896D+00
      0.1098773000D+01  0.7062139107D+00
      0.2601800000D+00 -0.1313356223D+01
 S   1 1.00       0.000000000000
      0.1270790000D+00  0.1000000000D+01
 S   1 1.00       0.000000000000
      0.5440800000D-01  0.1000000000D+01
 P   9 1.00       0.000000000000
      0.8050167400D+04  0.3171647393D-03
      0.1907536100D+04  0.2767095722D-02
      0.6186274600D+03  0.1513318338D-01
      0.2353241700D+03  0.6000954585D-01
      0.9889964600D+02  0.1734678320D+00
      0.4424821500D+02  0.3414014109D+00
      0.2061742900D+02  0.3900889002D+00
      0.9780516000D+01  0.1838909611D+00
      0.4441238000D+01  0.2098107960D-01
 P   9 1.00       0.000000000000
      0.8050167400D+04 -0.2234135706D-05
      0.6186274600D+03 -0.1715007425D-03
      0.2353241700D+03 -0.6132689521D-03
      0.9889964600D+02 -0.6123322804D-02
      0.4424821500D+02 -0.1470146004D-01
      0.2061742900D+02 -0.3528922299D-01
      0.9780516000D+01  0.1186152103D+00
      0.4441238000D+01  0.3909162993D+00
      0.1964045000D+01  0.5901263542D+00
 P   8 1.00       0.000000000000
      0.6186274600D+03  0.2667262368D-03
      0.2353241700D+03 -0.6711756315D-03
      0.4424821500D+02 -0.1910591462D-01
      0.2061742900D+02  0.2536068234D-03
      0.9780516000D+01  0.3161144601D-01
      0.4441238000D+01  0.4176710187D+00
      0.1964045000D+01  0.3177630340D-01
      0.8335780000D+00  0.6910143848D+00
 P   1 1.00       0.000000000000
      0.1934450000D+00  0.1000000000D+01
 P   1 1.00       0.000000000000
      0.5611700000D-01  0.1000000000D+01
 D   7 1.00       0.000000000000
      0.2441474100D+03  0.2099960876D-02
      0.7306759500D+02  0.1710302620D-01
      0.2759208100D+02  0.7291567654D-01
      0.1154651800D+02  0.1980230990D+00
      0.5048628000D+01  0.3371221453D+00
      0.2178465000D+01  0.3810593978D+00
      0.9002530000D+00  0.2843478597D+00
 D   1 1.00       0.000000000000
      0.3373270000D+00  0.1000000000D+01
 D   1 1.00       0.000000000000
      0.1169000000D+00  0.1000000000D+01
 F   1 1.00       0.000000000000
      0.2881000000D+00  0.1000000000D+01
 ****
      2 0
 S  11 1.00       0.000000000000
      0.4561000000D+06  0.4931994985D-04
      0.6833000000D+05  0.3832069654D-03
      0.1555000000D+05  0.2009478163D-02
      0.4405000000D+04  0.8389501239D-02
      0.1439000000D+04  0.2948439504D-01
      0.5204000000D+03  0.8787599478D-01
      0.2031000000D+03  0.2115897588D+00
      0.8396000000D+02  0.3656115542D+00
      0.3620000000D+02  0.3412463495D+00
      0.1583000000D+02  0.1021625703D+00
      0.6334000000D+01  0.2142500341D-02
 S   9 1.00       0.000000000000
      0.4405000000D+04 -0.2204447291D-05
      0.1439000000D+04 -0.1711436735D-03
      0.5204000000D+03 -0.1279090931D-02
      0.2031000000D+03 -0.9329228843D-02
      0.8396000000D+02 -0.3989041931D-01
      0.3620000000D+02 -0.1055355078D+00
      0.1583000000D+02  0.9362179729D-02
      0.6334000000D+01  0.5105109260D+00
      0.2694000000D+01  0.5731504921D+00
 S   8 1.00       0.000000000000
      0.1439000000D+04  0.4124162199D-05
      0.2031000000D+03  0.2104155934D-03
      0.8396000000D+02  0.8480710786D-03
      0.3620000000D+02  0.4599171473D-02
      0.1583000000D+02  0.4508898864D-03
      0.6334000000D+01 -0.7367222261D-01
      0.2694000000D+01 -0.3620654654D+00
      0.4313000000D+00  0.1166145419D+01
 S   1 1.00       0.000000000000
      0.9768000000D+00  0.1000000000D+01
 S   1 1.00       0.000000000000
      0.1625000000D+00  0.1000000000D+01
 P   6 1.00       0.000000000000
      0.6633000000D+03  0.2472064066D-02
      0.1568000000D+03  0.1975502338D-01
      0.4998000000D+02  0.9099173548D-01
      0.1842000000D+02  0.2631878341D+00
      0.7240000000D+01  0.4490780732D+00
      0.2922000000D+01  0.3601830723D+00
 P   6 1.00       0.000000000000
      0.1568000000D+03  0.3027166250D-04
      0.4998000000D+02 -0.1225086593D-02
      0.1842000000D+02 -0.6015248783D-02
      0.7240000000D+01 -0.2764176479D-01
      0.2922000000D+01  0.4338088816D-03
      0.3818000000D+00  0.1003073285D+01
 P   1 1.00       0.000000000000
      0.1022000000D+01  0.1000000000D+01
 P   1 1.00       0.000000000000
      0.1301000000D+00  0.1000000000D+01
 D   1 1.00       0.000000000000
      0.4610000000D+01  0.1000000000D+01
 D   1 1.00       0.000000000000
      0.1011000000D+01  0.1000000000D+01
 D   1 1.00       0.000000000000
      0.3390000000D+00  0.1000000000D+01
 F   1 1.00       0.000000000000
      0.7060000000D+00  0.1000000000D+01
 ****

 There are    44 symmetry adapted cartesian basis functions of A1  symmetry.
 There are     8 symmetry adapted cartesian basis functions of A2  symmetry.
 There are    21 symmetry adapted cartesian basis functions of B1  symmetry.
 There are    21 symmetry adapted cartesian basis functions of B2  symmetry.
 There are    36 symmetry adapted basis functions of A1  symmetry.
 There are     8 symmetry adapted basis functions of A2  symmetry.
 There are    19 symmetry adapted basis functions of B1  symmetry.
 There are    19 symmetry adapted basis functions of B2  symmetry.
    82 basis functions,   296 primitive gaussians,    94 cartesian basis functions
    24 alpha electrons       22 beta electrons
       nuclear repulsion energy       123.8920756676 Hartrees.
 NAtoms=    2 NActive=    2 NUniq=    2 SFac= 1.00D+00 NAtFMM=   60 NAOKFM=F Big=F
 Integral buffers will be    131072 words long.
 Raffenetti 2 integral format.
 Two-electron integral symmetry is turned on.
 One-electron integrals computed using PRISM.
 NBasis=    82 RedAO= T EigKep=  1.23D-02  NBF=    36     8    19    19
 NBsUse=    82 1.00D-06 EigRej= -1.00D+00 NBFU=    36     8    19    19
 Initial guess from the checkpoint file:  "gacl.chk"
 B after Tr=     0.000000    0.000000    0.000000
         Rot=    1.000000    0.000000    0.000000    0.000000 Ang=   0.00 deg.
 Initial guess orbital symmetries:
 Alpha Orbitals:
       Occupied  (SG) (SG) (SG) (PI) (PI) (SG) (SG) (SG) (PI) (PI)
                 (SG) (PI) (PI) (SG) (DLTA) (DLTA) (SG) (PI) (PI)
                 (SG) (SG) (PI) (PI) (SG)
       Virtual   (PI) (PI) (SG) (SG) (SG) (DLTA) (DLTA) (PI) (PI)
                 (PI) (PI) (SG) (SG) (PI) (PI) (DLTA) (DLTA) (PI)
                 (PI) (SG) (PHI) (PHI) (DLTA) (DLTA) (SG) (DLTA)
                 (DLTA) (PI) (PI) (SG) (PI) (PI) (SG) (SG) (DLTA)
                 (DLTA) (PI) (PI) (PI) (PI) (SG) (PHI) (PHI) (SG)
                 (DLTA) (DLTA) (PI) (PI) (SG) (PI) (PI) (SG) (SG)
                 (DLTA) (DLTA) (PI) (PI) (SG)
 Beta  Orbitals:
       Occupied  (SG) (SG) (SG) (PI) (PI) (SG) (SG) (PI) (PI) (SG)
                 (SG) (PI) (PI) (SG) (DLTA) (DLTA) (PI) (PI) (SG)
                 (SG) (SG) (PI)
       Virtual   (PI) (SG) (PI) (PI) (SG) (SG) (DLTA) (DLTA) (PI)
                 (PI) (SG) (PI) (PI) (SG) (PI) (PI) (SG) (DLTA)
                 (DLTA) (PI) (PI) (SG) (PHI) (PHI) (DLTA) (DLTA)
                 (SG) (DLTA) (DLTA) (PI) (PI) (SG) (PI) (PI) (SG)
                 (SG) (DLTA) (DLTA) (PI) (PI) (PI) (PI) (SG) (PHI)
                 (PHI) (DLTA) (DLTA) (SG) (PI) (PI) (SG) (PI) (PI)
                 (SG) (SG) (DLTA) (DLTA) (PI) (PI) (SG)
 Initial guess <Sx>= 0.0000 <Sy>= 0.0000 <Sz>= 1.0000 <S**2>= 2.0392 S= 1.0130
 Keep R1 and R2 ints in memory in symmetry-blocked form, NReq=9102715.
 Requested convergence on RMS density matrix=1.00D-08 within  64 cycles.
 Requested convergence on MAX density matrix=1.00D-06.
 Requested convergence on             energy=1.00D-06.
 No special actions if energy rises.
 SCF Done:  E(UHF) =  -2381.95040860     A.U. after   13 cycles
            NFock= 13  Conv=0.90D-08     -V/T= 1.9999
 <Sx>= 0.0000 <Sy>= 0.0000 <Sz>= 1.0000 <S**2>= 2.0197 S= 1.0065
 <L.S>= 0.000000000000E+00
 Annihilation of the first spin contaminant:
 S**2 before annihilation     2.0197,   after     2.0002
 QCSCF skips out because SCF is already converged.
 ExpMin= 5.44D-02 ExpMax= 6.56D+06 ExpMxC= 7.45D+03 IAcc=3 IRadAn=         5 AccDes= 0.00D+00
 HarFok:  IExCor=  205 AccDes= 0.00D+00 IRadAn=         5 IDoV=-2 UseB2=F ITyADJ=14
 ICtDFT= 12500011 ScaDFX=  1.000000  1.000000  1.000000  1.000000
 Range of M.O.s used for correlation:    15    82
 NBasis=    82 NAE=    24 NBE=    22 NFC=    14 NFV=     0
 NROrb=     68 NOA=    10 NOB=     8 NVA=    58 NVB=    60
 Semi-Direct transformation.
 ModeAB=           2 MOrb=            10 LenV=    1048157589
 LASXX=       354640 LTotXX=      354640 LenRXX=      354640
 LTotAB=      381552 MaxLAS=     3036200 LenRXY=     3036200
 NonZer=     3162680 LenScr=     5501440 LnRSAI=           0
 LnScr1=           0 LExtra=           0 Total=      8892280
 MaxDsk=          -1 SrtSym=           F ITran=            4
 JobTyp=1 Pass  1:  I=   1 to  10.
 (rs|ai) integrals will be sorted in core.
 ModeAB=           2 MOrb=             8 LenV=    1048157589
 LASXX=       290035 LTotXX=      290035 LenRXX=     2428960
 LTotAB=      225428 MaxLAS=     2428960 LenRXY=      225428
 NonZer=     2530144 LenScr=     4552704 LnRSAI=           0
 LnScr1=           0 LExtra=           0 Total=      7207092
 MaxDsk=          -1 SrtSym=           F ITran=            4
 JobTyp=2 Pass  1:  I=   1 to   8.
 (rs|ai) integrals will be sorted in core.
 Spin components of T(2) and E(2):
     alpha-alpha T2 =       0.1325395724D-01 E2=     -0.3962357790D-01
     alpha-beta  T2 =       0.5616294336D-01 E2=     -0.1681714177D+00
     beta-beta   T2 =       0.6973101490D-02 E2=     -0.2155111448D-01
 ANorm=    0.1037492170D+01
 E2 =    -0.2293461101D+00 EUMP2 =    -0.23821797547079D+04
 (S**2,0)=  0.20197D+01           (S**2,1)=  0.20042D+01
 E(PUHF)=      -0.23819542075D+04        E(PMP2)=      -0.23821820688D+04
 Keep R2 and R3 ints in memory in symmetry-blocked form, NReq=8944261.
 Iterations= 100 Convergence= 0.100D-06
 Iteration Nr.   1
 **********************
 DD1Dir will call FoFMem   1 times, MxPair=       234
 NAB=    80 NAA=    45 NBB=    28.
 E(PMP3)=      -0.23822006205D+04
 MP4(R+Q)=  0.43400705D-02
 E3=       -0.19617636D-01        EUMP3=      -0.23821993723D+04
 E4(DQ)=   -0.24155859D-02        UMP4(DQ)=   -0.23822017879D+04
 E4(SDQ)=  -0.66049202D-02        UMP4(SDQ)=  -0.23822059773D+04
 DE(Corr)= -0.24424231     E(Corr)=     -2382.1946509    
 NORM(A)=   0.10467114D+01
 Iteration Nr.   2
 **********************
 DD1Dir will call FoFMem   1 times, MxPair=       234
 NAB=    80 NAA=    45 NBB=    28.
 DE(Corr)= -0.25319473     E(CORR)=     -2382.2036033     Delta=-8.95D-03
 NORM(A)=   0.10507180D+01
 Iteration Nr.   3
 **********************
 DD1Dir will call FoFMem   1 times, MxPair=       234
 NAB=    80 NAA=    45 NBB=    28.
 DE(Corr)= -0.25389615     E(CORR)=     -2382.2043048     Delta=-7.01D-04
 NORM(A)=   0.10525217D+01
 Iteration Nr.   4
 **********************
 DD1Dir will call FoFMem   1 times, MxPair=       234
 NAB=    80 NAA=    45 NBB=    28.
 DE(Corr)= -0.25485456     E(CORR)=     -2382.2052632     Delta=-9.58D-04
 NORM(A)=   0.10532944D+01
 Iteration Nr.   5
 **********************
 DD1Dir will call FoFMem   1 times, MxPair=       234
 NAB=    80 NAA=    45 NBB=    28.
 DE(Corr)= -0.25500171     E(CORR)=     -2382.2054103     Delta=-1.47D-04
 NORM(A)=   0.10535338D+01
 Iteration Nr.   6
 **********************
 DD1Dir will call FoFMem   1 times, MxPair=       234
 NAB=    80 NAA=    45 NBB=    28.
 DE(Corr)= -0.25503254     E(CORR)=     -2382.2054411     Delta=-3.08D-05
 NORM(A)=   0.10535821D+01
 Iteration Nr.   7
 **********************
 DD1Dir will call FoFMem   1 times, MxPair=       234
 NAB=    80 NAA=    45 NBB=    28.
 DE(Corr)= -0.25503702     E(CORR)=     -2382.2054456     Delta=-4.49D-06
 NORM(A)=   0.10535966D+01
 Iteration Nr.   8
 **********************
 DD1Dir will call FoFMem   1 times, MxPair=       234
 NAB=    80 NAA=    45 NBB=    28.
 DE(Corr)= -0.25503719     E(CORR)=     -2382.2054458     Delta=-1.69D-07
 NORM(A)=   0.10535968D+01
 Iteration Nr.   9
 **********************
 DD1Dir will call FoFMem   1 times, MxPair=       234
 NAB=    80 NAA=    45 NBB=    28.
 DE(Corr)= -0.25503993     E(CORR)=     -2382.2054485     Delta=-2.74D-06
 NORM(A)=   0.10535979D+01
 Iteration Nr.  10
 **********************
 DD1Dir will call FoFMem   1 times, MxPair=       234
 NAB=    80 NAA=    45 NBB=    28.
 DE(Corr)= -0.25503935     E(CORR)=     -2382.2054479     Delta= 5.87D-07
 NORM(A)=   0.10535979D+01
 Iteration Nr.  11
 **********************
 DD1Dir will call FoFMem   1 times, MxPair=       234
 NAB=    80 NAA=    45 NBB=    28.
 DE(Corr)= -0.25503974     E(CORR)=     -2382.2054483     Delta=-3.98D-07
 NORM(A)=   0.10535982D+01
 Iteration Nr.  12
 **********************
 DD1Dir will call FoFMem   1 times, MxPair=       234
 NAB=    80 NAA=    45 NBB=    28.
 DE(Corr)= -0.25503977     E(CORR)=     -2382.2054484     Delta=-2.40D-08
 NORM(A)=   0.10535985D+01
 Iteration Nr.  13
 **********************
 DD1Dir will call FoFMem   1 times, MxPair=       234
 NAB=    80 NAA=    45 NBB=    28.
 DE(Corr)= -0.25503983     E(CORR)=     -2382.2054484     Delta=-5.85D-08
 NORM(A)=   0.10535986D+01
 Largest amplitude= 4.64D-02
 Time for triples=        8.91 seconds.
 T4(CCSD)= -0.12430714D-01
 T5(CCSD)=  0.72122033D-03
 CCSD(T)= -0.23822171579D+04

 S**2, projected HF & approx projected MPn energies after annihilation of
 unwanted spin states (see manual for definitions):

 spins       (S**2,0) (S**2,1)    PUHF        PMP2        PMP3        PMP4
 annihilated
 s+1         1.99991  2.00006-2381.954208-2382.182068-2382.200620
 s+1,s+2     2.00000  2.00000-2381.954191-2382.182054-2382.200608
 s+1 to s+3  2.00000  2.00000-2381.954191-2382.182054-2382.200608
 s+1 to s+4  2.00000  2.00000-2381.954191-2382.182054-2382.200608
 s+1 to s+5  2.00000  2.00000-2381.954191
 s+1 to s+6  2.00000  2.00000-2381.954191

 Discarding MO integrals.

 **********************************************************************

            Population analysis using the SCF density.

 **********************************************************************

 Orbital symmetries:
 Alpha Orbitals:
       Occupied  (SG) (SG) (SG) (PI) (PI) (SG) (SG) (PI) (SG) (PI)
                 (SG) (PI) (PI) (SG) (?A) (?A) (?A) (PI) (PI) (?B)
                 (SG) (PI) (PI) (SG)
       Virtual   (PI) (PI) (SG) (?B) (?B) (?B) (?C) (?B) (?C) (?C)
                 (?C) (?B) (PI) (PI) (?B) (?B) (?B) (PI) (PI) (?B)
                 (PHI) (PHI) (?D) (?D) (?D) (?D) (?D) (?C) (?C)
                 (SG) (?C) (?C) (SG) (SG) (?E) (?E) (?F) (?F) (?F)
                 (?F) (?E) (?F) (?F) (?E) (?E) (?E) (?F) (?F) (?E)
                 (?F) (?F) (SG) (SG) (?G) (?G) (PI) (PI) (?G)
 Beta  Orbitals:
       Occupied  (SG) (SG) (SG) (PI) (PI) (SG) (SG) (PI) (SG) (PI)
                 (SG) (PI) (PI) (SG) (?A) (?A) (?A) (PI) (PI) (?B)
                 (SG) (?C)
       Virtual   (?C) (SG) (?C) (?C) (SG) (SG) (?D) (?D) (?E) (?E)
                 (?D) (?E) (?E) (?B) (?C) (?B) (?C) (?B) (?B) (PI)
                 (PI) (?B) (PHI) (PHI) (?F) (?F) (?F) (DLTA) (DLTA)
                 (PI) (PI) (SG) (PI) (PI) (SG) (SG) (DLTA) (DLTA)
                 (PI) (PI) (PI) (PI) (SG) (PHI) (PHI) (?G) (?G)
                 (?G) (?E) (?E) (SG) (?E) (?E) (SG) (SG) (?H) (?H)
                 (PI) (PI) (?H)
 Unable to determine electronic state:  an orbital has unidentified symmetry.
 Alpha  occ. eigenvalues -- -379.42779-105.44746 -48.77292 -43.09866 -43.09848
 Alpha  occ. eigenvalues --  -43.09779 -11.16559  -8.64957  -8.63166  -8.62418
 Alpha  occ. eigenvalues --   -7.00699  -5.09488  -5.09423  -5.09141  -1.80954
 Alpha  occ. eigenvalues --   -1.80723  -1.80721  -1.80381  -1.80322  -1.68574
 Alpha  occ. eigenvalues --   -1.12351  -1.10302  -1.02333  -0.92002
 Alpha virt. eigenvalues --   -0.43885  -0.43236  -0.34412  -0.23610  -0.14642
 Alpha virt. eigenvalues --   -0.14581  -0.14291  -0.13814  -0.13012  -0.11705
 Alpha virt. eigenvalues --   -0.11019  -0.07026   0.03637   0.06721   0.07310
 Alpha virt. eigenvalues --    0.08001   0.08673   0.18999   0.21984   0.23004
 Alpha virt. eigenvalues --    0.51438   0.51438   0.53145   0.53173   0.56275
 Alpha virt. eigenvalues --    0.60875   0.60880   0.61866   0.62647   0.67934
 Alpha virt. eigenvalues --    0.71198   0.72509   0.75788   1.07194   1.51316
 Alpha virt. eigenvalues --    1.51343   1.57374   1.60229   1.65716   1.67465
 Alpha virt. eigenvalues --    1.68130   1.82620   1.82639   1.85843   1.86019
 Alpha virt. eigenvalues --    1.91797   2.00728   2.05857   2.07713   2.08512
 Alpha virt. eigenvalues --    2.12650   2.81842   4.67790   8.05161   8.05257
 Alpha virt. eigenvalues --    8.12722   8.15459   8.23663
  Beta  occ. eigenvalues -- -379.42444-105.43241 -48.76903 -43.09806 -43.09799
  Beta  occ. eigenvalues --  -43.09614 -11.15013  -8.61613  -8.61175  -8.59671
  Beta  occ. eigenvalues --   -6.99546  -5.09044  -5.09016  -5.08846  -1.80390
  Beta  occ. eigenvalues --   -1.80364  -1.80328  -1.80036  -1.79984  -1.54038
  Beta  occ. eigenvalues --   -1.04662  -0.99513
  Beta virt. eigenvalues --   -0.54325  -0.54044  -0.38052  -0.36706  -0.28551
  Beta virt. eigenvalues --   -0.22191  -0.12854  -0.12848  -0.12317  -0.11609
  Beta virt. eigenvalues --   -0.10251  -0.08293  -0.08174  -0.05367   0.08260
  Beta virt. eigenvalues --    0.10492   0.10890   0.15887   0.16000   0.23355
  Beta virt. eigenvalues --    0.25265   0.26802   0.53230   0.53230   0.55029
  Beta virt. eigenvalues --    0.55034   0.59449   0.63587   0.63588   0.64672
  Beta virt. eigenvalues --    0.64726   0.70474   0.74797   0.74821   0.78316
  Beta virt. eigenvalues --    1.10104   1.55127   1.55138   1.61497   1.61998
  Beta virt. eigenvalues --    1.68945   1.69345   1.70850   1.87896   1.87897
  Beta virt. eigenvalues --    1.90322   1.90364   1.94135   2.06865   2.07597
  Beta virt. eigenvalues --    2.09912   2.14127   2.14247   2.84304   4.70460
  Beta virt. eigenvalues --    8.06669   8.06704   8.14476   8.16004   8.24580
          Condensed to atoms (all electrons):
               1          2
     1  Ga  29.376090   0.224466
     2  Cl   0.224466  16.174978
          Atomic-Atomic Spin Densities.
               1          2
     1  Ga   0.883512  -0.080627
     2  Cl  -0.080627   1.277743
 Mulliken charges and spin densities:
               1          2
     1  Ga   1.399444   0.802885
     2  Cl   0.600556   1.197115
 Sum of Mulliken charges =   2.00000   2.00000
 Mulliken charges and spin densities with hydrogens summed into heavy atoms:
               1          2
     1  Ga   1.399444   0.802885
     2  Cl   0.600556   1.197115
 Electronic spatial extent (au):  <R**2>=            233.4485
 Charge=              2.0000 electrons
 Dipole moment (field-independent basis, Debye):
    X=              0.0000    Y=              0.0000    Z=              1.2404  Tot=              1.2404
 Quadrupole moment (field-independent basis, Debye-Ang):
   XX=            -20.5662   YY=            -18.5425   ZZ=             -7.6873
   XY=              0.0000   XZ=              0.0000   YZ=              0.0000
 Traceless Quadrupole moment (field-independent basis, Debye-Ang):
   XX=             -4.9676   YY=             -2.9438   ZZ=              7.9114
   XY=              0.0000   XZ=              0.0000   YZ=              0.0000
 Octapole moment (field-independent basis, Debye-Ang**2):
  XXX=              0.0000  YYY=              0.0000  ZZZ=             10.0902  XYY=              0.0000
  XXY=              0.0000  XXZ=              8.6180  XZZ=              0.0000  YZZ=              0.0000
  YYZ=              5.9004  XYZ=              0.0000
 Hexadecapole moment (field-independent basis, Debye-Ang**3):
 XXXX=            -18.1215 YYYY=            -14.4908 ZZZZ=           -158.0613 XXXY=              0.0000
 XXXZ=              0.0000 YYYX=              0.0000 YYYZ=              0.0000 ZZZX=              0.0000
 ZZZY=              0.0000 XXYY=             -5.4322 XXZZ=            -34.6987 YYZZ=            -30.3606
 XXYZ=              0.0000 YYXZ=              0.0000 ZZXY=              0.0000
 N-N= 1.238920756676D+02 E-N=-5.921862524661D+03  KE= 2.382116226744D+03
 Symmetry A1   KE= 1.787654532102D+03
 Symmetry A2   KE= 2.632961939948D+01
 Symmetry B1   KE= 2.852759100459D+02
 Symmetry B2   KE= 2.828561651962D+02
 1\1\GINC-GAMBA\SP\UCCSD(T)-FC\Gen\Cl1Ga1(2+,3)\IRIKURA\17-May-2017\0\\
 # CCSD(T,maxcyc=100)/GEN gfinput geom=check scf=xqc guess=check\\BEB s
 tep 9: high-spin CCSD(T) for dication of gacl\\2,3\Ga,0,0.,0.,-0.02548
 11392\Cl,0,0.,0.,2.2254811392\\Version=ES64L-G09RevD.01\HF=-2381.95040
 86\MP2=-2382.1797547\MP3=-2382.1993723\MP4D=-2382.206128\MP4DQ=-2382.2
 017879\PUHF=-2381.9542075\PMP2-0=-2382.1820688\PMP3-0=-2382.2006205\MP
 4SDQ=-2382.2059773\CCSD=-2382.2054484\CCSD(T)=-2382.2171579\S2=2.01969
 2\S2-1=2.004219\S2A=2.000152\RMSD=8.996e-09\PG=C*V [C*(Cl1Ga1)]\\@


 READER, WHETHER YOU BE DILETTANTE OR PROFESSOR ... SHOW YOURSELF TO BE
 MORE HUMAN THAN CRITICAL, AND THEN YOUR PLEASURE WILL INCREASE.
                                           -- DOMENICO SCARLATTI (1738)
 Job cpu time:       0 days  0 hours  1 minutes 14.1 seconds.
 File lengths (MBytes):  RWF=     88 Int=      0 D2E=      0 Chk=      2 Scr=      1
 Normal termination of Gaussian 09 at Wed May 17 13:29:45 2017.
