 Entering Gaussian System, Link 0=g09
 Initial command:
 /usr/local/apps/g09/l1.exe "/wrk/irikura/Gau-29080.inp" -scrdir="/wrk/irikura/"
 Entering Link 1 = /usr/local/apps/g09/l1.exe PID=     29082.
  
 Copyright (c) 1988,1990,1992,1993,1995,1998,2003,2009,2013,
            Gaussian, Inc.  All Rights Reserved.
  
 This is part of the Gaussian(R) 09 program.  It is based on
 the Gaussian(R) 03 system (copyright 2003, Gaussian, Inc.),
 the Gaussian(R) 98 system (copyright 1998, Gaussian, Inc.),
 the Gaussian(R) 94 system (copyright 1995, Gaussian, Inc.),
 the Gaussian 92(TM) system (copyright 1992, Gaussian, Inc.),
 the Gaussian 90(TM) system (copyright 1990, Gaussian, Inc.),
 the Gaussian 88(TM) system (copyright 1988, Gaussian, Inc.),
 the Gaussian 86(TM) system (copyright 1986, Carnegie Mellon
 University), and the Gaussian 82(TM) system (copyright 1983,
 Carnegie Mellon University). Gaussian is a federally registered
 trademark of Gaussian, Inc.
  
 This software contains proprietary and confidential information,
 including trade secrets, belonging to Gaussian, Inc.
  
 This software is provided under written license and may be
 used, copied, transmitted, or stored only in accord with that
 written license.
  
 The following legend is applicable only to US Government
 contracts under FAR:
  
                    RESTRICTED RIGHTS LEGEND
  
 Use, reproduction and disclosure by the US Government is
 subject to restrictions as set forth in subparagraphs (a)
 and (c) of the Commercial Computer Software - Restricted
 Rights clause in FAR 52.227-19.
  
 Gaussian, Inc.
 340 Quinnipiac St., Bldg. 40, Wallingford CT 06492
  
  
 ---------------------------------------------------------------
 Warning -- This program may not be used in any manner that
 competes with the business of Gaussian, Inc. or will provide
 assistance to any competitor of Gaussian, Inc.  The licensee
 of this program is prohibited from giving any competitor of
 Gaussian, Inc. access to this program.  By using this program,
 the user acknowledges that Gaussian, Inc. is engaged in the
 business of creating and licensing software in the field of
 computational chemistry and represents and warrants to the
 licensee that it is not a competitor of Gaussian, Inc. and that
 it will not use this program in any manner prohibited above.
 ---------------------------------------------------------------
  

 Cite this work as:
 Gaussian 09, Revision D.01,
 M. J. Frisch, G. W. Trucks, H. B. Schlegel, G. E. Scuseria, 
 M. A. Robb, J. R. Cheeseman, G. Scalmani, V. Barone, B. Mennucci, 
 G. A. Petersson, H. Nakatsuji, M. Caricato, X. Li, H. P. Hratchian, 
 A. F. Izmaylov, J. Bloino, G. Zheng, J. L. Sonnenberg, M. Hada, 
 M. Ehara, K. Toyota, R. Fukuda, J. Hasegawa, M. Ishida, T. Nakajima, 
 Y. Honda, O. Kitao, H. Nakai, T. Vreven, J. A. Montgomery, Jr., 
 J. E. Peralta, F. Ogliaro, M. Bearpark, J. J. Heyd, E. Brothers, 
 K. N. Kudin, V. N. Staroverov, T. Keith, R. Kobayashi, J. Normand, 
 K. Raghavachari, A. Rendell, J. C. Burant, S. S. Iyengar, J. Tomasi, 
 M. Cossi, N. Rega, J. M. Millam, M. Klene, J. E. Knox, J. B. Cross, 
 V. Bakken, C. Adamo, J. Jaramillo, R. Gomperts, R. E. Stratmann, 
 O. Yazyev, A. J. Austin, R. Cammi, C. Pomelli, J. W. Ochterski, 
 R. L. Martin, K. Morokuma, V. G. Zakrzewski, G. A. Voth, 
 P. Salvador, J. J. Dannenberg, S. Dapprich, A. D. Daniels, 
 O. Farkas, J. B. Foresman, J. V. Ortiz, J. Cioslowski, 
 and D. J. Fox, Gaussian, Inc., Wallingford CT, 2013.
 
 ******************************************
 Gaussian 09:  ES64L-G09RevD.01 24-Apr-2013
                17-May-2017 
 ******************************************
 %chk=gacl.chk
 %nprocs=4
 Will use up to    4 processors via shared memory.
 %mem=1000mw
 ---------------------------------------
 # B3LYP/GEN gfinput OPT FREQ scf=xqc 6D
 ---------------------------------------
 1/14=-1,18=20,19=15,26=3,38=1/1,3;
 2/9=110,12=2,17=6,18=5,40=1/2;
 3/5=7,8=2,11=2,16=1,24=10,25=1,30=1,71=1,74=-5/1,2,3;
 4//1;
 5/5=2,8=3,13=1,38=5/2,8;
 6/7=2,8=2,9=2,10=2,28=1/1;
 7//1,2,3,16;
 1/14=-1,18=20,19=15,26=3/3(2);
 2/9=110/2;
 99//99;
 2/9=110/2;
 3/5=7,6=1,8=2,11=2,16=1,25=1,30=1,71=1,74=-5,82=7/1,2,3;
 4/5=5,16=3,69=1/1;
 5/5=2,8=3,13=1,38=5/2,8;
 7//1,2,3,16;
 1/14=-1,18=20,19=15,26=3/3(-5);
 2/9=110/2;
 6/7=2,8=2,9=2,10=2,19=2,28=1/1;
 99/9=1/99;
 -----------------------------------
 BEB step 1: geom and freqs for gacl
 -----------------------------------
 Symbolic Z-matrix:
 Charge =  0 Multiplicity = 1
 Ga                    0.        0.        0. 
 Cl                    0.        0.        2.2 
 

 GradGradGradGradGradGradGradGradGradGradGradGradGradGradGradGradGradGrad
 Berny optimization.
 Initialization pass.
                           ----------------------------
                           !    Initial Parameters    !
                           ! (Angstroms and Degrees)  !
 --------------------------                            --------------------------
 ! Name  Definition              Value          Derivative Info.                !
 --------------------------------------------------------------------------------
 ! R1    R(1,2)                  2.2            estimate D2E/DX2                !
 --------------------------------------------------------------------------------
 Trust Radius=3.00D-01 FncErr=1.00D-07 GrdErr=1.00D-06
 Number of steps in this run=     20 maximum allowed number of steps=    100.
 GradGradGradGradGradGradGradGradGradGradGradGradGradGradGradGradGradGrad

                          Input orientation:                          
 ---------------------------------------------------------------------
 Center     Atomic      Atomic             Coordinates (Angstroms)
 Number     Number       Type             X           Y           Z
 ---------------------------------------------------------------------
      1         31           0        0.000000    0.000000    0.000000
      2         17           0        0.000000    0.000000    2.200000
 ---------------------------------------------------------------------
 Stoichiometry    ClGa
 Framework group  C*V[C*(ClGa)]
 Deg. of freedom     1
 Full point group                 C*V     NOp   4
 Largest Abelian subgroup         C2V     NOp   4
 Largest concise Abelian subgroup C1      NOp   1
                         Standard orientation:                         
 ---------------------------------------------------------------------
 Center     Atomic      Atomic             Coordinates (Angstroms)
 Number     Number       Type             X           Y           Z
 ---------------------------------------------------------------------
      1         31           0        0.000000    0.000000    0.779167
      2         17           0        0.000000    0.000000   -1.420833
 ---------------------------------------------------------------------
 Rotational constants (GHZ):      0.0000000      4.5009304      4.5009304
 General basis read from cards:  (6D, 7F)
 AO basis set in the form of general basis input (Overlap normalization):
      1 0
 S   8 1.00       0.000000000000
      0.4576000000D+06  0.2117728440D-03
      0.6847000000D+05  0.1651383315D-02
      0.1559000000D+05  0.8500539716D-02
      0.4450000000D+04  0.3443801514D-01
      0.1472000000D+04  0.1097406724D+00
      0.5413000000D+03  0.2700180463D+00
      0.2148000000D+03  0.4296242820D+00
      0.8881000000D+02  0.2833353444D+00
 S   2 1.00       0.000000000000
      0.2718000000D+02  0.3029691487D+00
      0.1154000000D+02  0.7240978426D+00
 S   1 1.00       0.000000000000
      0.3303000000D+01  0.1000000000D+01
 S   1 1.00       0.000000000000
      0.1334000000D+01  0.1000000000D+01
 S   1 1.00       0.000000000000
      0.1947000000D+00  0.1000000000D+01
 S   1 1.00       0.000000000000
      0.7158000000D-01  0.1000000000D+01
 P   6 1.00       0.000000000000
      0.3274000000D+04  0.1495943411D-02
      0.7654000000D+03  0.1346480978D-01
      0.2416000000D+03  0.6634386759D-01
      0.8939000000D+02  0.2329807818D+00
      0.3636000000D+02  0.4051517633D+00
      0.1560000000D+02  0.4423296556D+00
 P   3 1.00       0.000000000000
      0.6472000000D+01  0.2810145729D+00
      0.2748000000D+01  0.5204448020D+00
      0.1090000000D+01  0.3091752365D+00
 P   1 1.00       0.000000000000
      0.2202000000D+00  0.1000000000D+01
 P   1 1.00       0.000000000000
      0.6130000000D-01  0.1000000000D+01
 D   5 1.00       0.000000000000
      0.5966000000D+02  0.3196863577D-01
      0.1710000000D+02  0.1636242002D+00
      0.6030000000D+01  0.3672992195D+00
      0.2171000000D+01  0.4571634948D+00
      0.6844000000D+00  0.3048523506D+00
 D   1 1.00       0.000000000000
      0.1410000000D+00  0.1000000000D+01
 ****
      2 0
 S   6 1.00       0.000000000000
      0.2518010000D+05  0.1832959848D-02
      0.3780350000D+04  0.1403419883D-01
      0.8604740000D+03  0.6909739426D-01
      0.2421450000D+03  0.2374519803D+00
      0.7733490000D+02  0.4830339599D+00
      0.2624700000D+02  0.3398559718D+00
 SP   6 1.00       0.000000000000
      0.4917650000D+03 -0.2297391417D-02  0.3989400879D-02
      0.1169840000D+03 -0.3071371894D-01  0.3031770668D-01
      0.3741530000D+02 -0.1125280694D+00  0.1298800286D+00
      0.1378340000D+02  0.4501632776D-01  0.3279510723D+00
      0.5452150000D+01  0.5893533634D+00  0.4535271000D+00
      0.2225880000D+01  0.4652062868D+00  0.2521540556D+00
 SP   3 1.00       0.000000000000
      0.3186490000D+01 -0.2518280280D+00 -0.1429931472D-01
      0.1144270000D+01  0.6158925141D-01  0.3235723331D+00
      0.4203770000D+00  0.1060184328D+01  0.7435077653D+00
 SP   1 1.00       0.000000000000
      0.1426570000D+00  0.1000000000D+01  0.1000000000D+01
 D   1 1.00       0.000000000000
      0.7500000000D+00  0.1000000000D+01
 ****

 There are    26 symmetry adapted cartesian basis functions of A1  symmetry.
 There are     3 symmetry adapted cartesian basis functions of A2  symmetry.
 There are    10 symmetry adapted cartesian basis functions of B1  symmetry.
 There are    10 symmetry adapted cartesian basis functions of B2  symmetry.
 There are    26 symmetry adapted basis functions of A1  symmetry.
 There are     3 symmetry adapted basis functions of A2  symmetry.
 There are    10 symmetry adapted basis functions of B1  symmetry.
 There are    10 symmetry adapted basis functions of B2  symmetry.
    49 basis functions,   135 primitive gaussians,    49 cartesian basis functions
    24 alpha electrons       24 beta electrons
       nuclear repulsion energy       126.7619949668 Hartrees.
 NAtoms=    2 NActive=    2 NUniq=    2 SFac= 1.00D+00 NAtFMM=   60 NAOKFM=F Big=F
 Integral buffers will be    131072 words long.
 Raffenetti 2 integral format.
 Two-electron integral symmetry is turned on.
 One-electron integrals computed using PRISM.
 NBasis=    49 RedAO= T EigKep=  4.09D-03  NBF=    26     3    10    10
 NBsUse=    49 1.00D-06 EigRej= -1.00D+00 NBFU=    26     3    10    10
 ExpMin= 6.13D-02 ExpMax= 4.58D+05 ExpMxC= 4.45D+03 IAcc=2 IRadAn=         4 AccDes= 0.00D+00
 Harris functional with IExCor=  402 and IRadAn=       4 diagonalized for initial guess.
 HarFok:  IExCor=  402 AccDes= 0.00D+00 IRadAn=         4 IDoV= 1 UseB2=F ITyADJ=14
 ICtDFT=  3500011 ScaDFX=  1.000000  1.000000  1.000000  1.000000
 FoFCou: FMM=F IPFlag=           0 FMFlag=      100000 FMFlg1=           0
         NFxFlg=           0 DoJE=T BraDBF=F KetDBF=T FulRan=T
         wScrn=  0.000000 ICntrl=     500 IOpCl=  0 I1Cent=   200000004 NGrid=           0
         NMat0=    1 NMatS0=      1 NMatT0=    0 NMatD0=    1 NMtDS0=    0 NMtDT0=    0
 Petite list used in FoFCou.
 Initial guess orbital symmetries:
       Occupied  (SG) (SG) (SG) (SG) (PI) (PI) (SG) (SG) (PI) (PI)
                 (SG) (SG) (PI) (PI) (SG) (PI) (PI) (DLTA) (DLTA)
                 (SG) (SG) (PI) (PI) (SG)
       Virtual   (PI) (PI) (SG) (SG) (SG) (PI) (PI) (DLTA) (DLTA)
                 (PI) (PI) (SG) (PI) (PI) (SG) (SG) (SG) (DLTA)
                 (DLTA) (PI) (PI) (SG) (SG) (SG) (SG)
 The electronic state of the initial guess is 1-SG.
 Keep R1 ints in memory in symmetry-blocked form, NReq=1758419.
 Requested convergence on RMS density matrix=1.00D-08 within  64 cycles.
 Requested convergence on MAX density matrix=1.00D-06.
 Requested convergence on             energy=1.00D-06.
 No special actions if energy rises.
 Integral accuracy reduced to 1.0D-05 until final iterations.
 Initial convergence to 1.0D-05 achieved.  Increase integral accuracy.
 SCF Done:  E(RB3LYP) =  -2383.18877584     A.U. after   12 cycles
            NFock= 12  Conv=0.24D-08     -V/T= 2.0038
 QCSCF skips out because SCF is already converged.

 **********************************************************************

            Population analysis using the SCF density.

 **********************************************************************

 Orbital symmetries:
       Occupied  (SG) (SG) (SG) (PI) (PI) (SG) (SG) (SG) (PI) (PI)
                 (SG) (PI) (PI) (SG) (SG) (DLTA) (DLTA) (PI) (PI)
                 (SG) (SG) (PI) (PI) (SG)
       Virtual   (PI) (PI) (SG) (SG) (PI) (PI) (SG) (DLTA) (DLTA)
                 (PI) (PI) (SG) (PI) (PI) (SG) (SG) (SG) (DLTA)
                 (DLTA) (PI) (PI) (SG) (SG) (SG) (SG)
 The electronic state is 1-SG.
 Alpha  occ. eigenvalues -- -372.54857-101.51539 -45.40200 -40.72317 -40.72317
 Alpha  occ. eigenvalues --  -40.72257  -9.43404  -7.19294  -7.19040  -7.19040
 Alpha  occ. eigenvalues --   -5.41287  -3.79744  -3.79744  -3.79296  -0.85709
 Alpha  occ. eigenvalues --   -0.85080  -0.85080  -0.84747  -0.84747  -0.78205
 Alpha  occ. eigenvalues --   -0.41547  -0.31524  -0.31524  -0.26769
 Alpha virt. eigenvalues --   -0.06982  -0.06982   0.01558   0.07000   0.21191
 Alpha virt. eigenvalues --    0.21191   0.21631   0.22566   0.22572   0.25908
 Alpha virt. eigenvalues --    0.25908   0.30738   0.50446   0.50446   0.51709
 Alpha virt. eigenvalues --    0.57573   0.61680   0.89394   0.89394   0.95213
 Alpha virt. eigenvalues --    0.95213   1.12783   4.13050   4.28684  18.90679
          Condensed to atoms (all electrons):
               1          2
     1  Ga  30.519544   0.215691
     2  Cl   0.215691  17.049074
 Mulliken charges:
               1
     1  Ga   0.264765
     2  Cl  -0.264765
 Sum of Mulliken charges =   0.00000
 Mulliken charges with hydrogens summed into heavy atoms:
               1
     1  Ga   0.264765
     2  Cl  -0.264765
 Electronic spatial extent (au):  <R**2>=            254.7408
 Charge=              0.0000 electrons
 Dipole moment (field-independent basis, Debye):
    X=              0.0000    Y=              0.0000    Z=              2.2383  Tot=              2.2383
 Quadrupole moment (field-independent basis, Debye-Ang):
   XX=            -27.5713   YY=            -27.5713   ZZ=            -32.2543
   XY=              0.0000   XZ=              0.0000   YZ=              0.0000
 Traceless Quadrupole moment (field-independent basis, Debye-Ang):
   XX=              1.5610   YY=              1.5610   ZZ=             -3.1220
   XY=              0.0000   XZ=              0.0000   YZ=              0.0000
 Octapole moment (field-independent basis, Debye-Ang**2):
  XXX=              0.0000  YYY=              0.0000  ZZZ=             16.9623  XYY=              0.0000
  XXY=              0.0000  XXZ=              6.9659  XZZ=              0.0000  YZZ=              0.0000
  YYZ=              6.9659  XYZ=              0.0000
 Hexadecapole moment (field-independent basis, Debye-Ang**3):
 XXXX=            -34.6408 YYYY=            -34.6408 ZZZZ=           -261.7997 XXXY=              0.0000
 XXXZ=              0.0000 YYYX=              0.0000 YYYZ=              0.0000 ZZZX=              0.0000
 ZZZY=              0.0000 XXYY=            -11.5469 XXZZ=            -48.9059 YYZZ=            -48.9059
 XXYZ=              0.0000 YYXZ=              0.0000 ZZXY=              0.0000
 N-N= 1.267619949668D+02 E-N=-5.943910008210D+03  KE= 2.374156540530D+03
 Symmetry A1   KE= 1.777632980219D+03
 Symmetry A2   KE= 2.580730099435D+01
 Symmetry B1   KE= 2.853581296583D+02
 Symmetry B2   KE= 2.853581296583D+02
 Calling FoFJK, ICntrl=      2127 FMM=F ISym2X=1 I1Cent= 0 IOpClX= 0 NMat=1 NMatS=1 NMatT=0.
 ***** Axes restored to original set *****
 -------------------------------------------------------------------
 Center     Atomic                   Forces (Hartrees/Bohr)
 Number     Number              X              Y              Z
 -------------------------------------------------------------------
      1       31           0.000000000    0.000000000   -0.011512148
      2       17           0.000000000    0.000000000    0.011512148
 -------------------------------------------------------------------
 Cartesian Forces:  Max     0.011512148 RMS     0.006646542

 GradGradGradGradGradGradGradGradGradGradGradGradGradGradGradGradGradGrad
 Berny optimization.
 FormGI is forming the generalized inverse of G from B-inverse, IUseBI=4.
 Internal  Forces:  Max     0.011512148 RMS     0.011512148
 Search for a local minimum.
 Step number   1 out of a maximum of   20
 All quantities printed in internal units (Hartrees-Bohrs-Radians)
 Mixed Optimization -- RFO/linear search
 Second derivative matrix not updated -- first step.
 The second derivative matrix:
                          R1
           R1           0.13645
 ITU=  0
     Eigenvalues ---    0.13645
 RFO step:  Lambda=-9.64456363D-04 EMin= 1.36449279D-01
 Linear search not attempted -- first point.
 Iteration  1 RMS(Cart)=  0.05923948 RMS(Int)=  0.00000000
 Iteration  2 RMS(Cart)=  0.00000000 RMS(Int)=  0.00000000
 ClnCor:  largest displacement from symmetrization is 6.94D-18 for atom     1.
 Variable       Old X    -DE/DX   Delta X   Delta X   Delta X     New X
                                 (Linear)    (Quad)   (Total)
    R1        4.15740   0.01151   0.00000   0.08378   0.08378   4.24117
         Item               Value     Threshold  Converged?
 Maximum Force            0.011512     0.000450     NO 
 RMS     Force            0.011512     0.000300     NO 
 Maximum Displacement     0.041889     0.001800     NO 
 RMS     Displacement     0.059239     0.001200     NO 
 Predicted change in Energy=-4.856128D-04
 GradGradGradGradGradGradGradGradGradGradGradGradGradGradGradGradGradGrad

                          Input orientation:                          
 ---------------------------------------------------------------------
 Center     Atomic      Atomic             Coordinates (Angstroms)
 Number     Number       Type             X           Y           Z
 ---------------------------------------------------------------------
      1         31           0        0.000000    0.000000   -0.022167
      2         17           0        0.000000    0.000000    2.222167
 ---------------------------------------------------------------------
 Stoichiometry    ClGa
 Framework group  C*V[C*(ClGa)]
 Deg. of freedom     1
 Full point group                 C*V     NOp   4
 Largest Abelian subgroup         C2V     NOp   4
 Largest concise Abelian subgroup C1      NOp   1
                         Standard orientation:                         
 ---------------------------------------------------------------------
 Center     Atomic      Atomic             Coordinates (Angstroms)
 Number     Number       Type             X           Y           Z
 ---------------------------------------------------------------------
      1         31           0        0.000000    0.000000    0.794868
      2         17           0        0.000000    0.000000   -1.449465
 ---------------------------------------------------------------------
 Rotational constants (GHZ):      0.0000000      4.3248700      4.3248700
 Basis read from rwf:  (6D, 7F)
 There are    26 symmetry adapted cartesian basis functions of A1  symmetry.
 There are     3 symmetry adapted cartesian basis functions of A2  symmetry.
 There are    10 symmetry adapted cartesian basis functions of B1  symmetry.
 There are    10 symmetry adapted cartesian basis functions of B2  symmetry.
 There are    26 symmetry adapted basis functions of A1  symmetry.
 There are     3 symmetry adapted basis functions of A2  symmetry.
 There are    10 symmetry adapted basis functions of B1  symmetry.
 There are    10 symmetry adapted basis functions of B2  symmetry.
    49 basis functions,   135 primitive gaussians,    49 cartesian basis functions
    24 alpha electrons       24 beta electrons
       nuclear repulsion energy       124.2580249995 Hartrees.
 NAtoms=    2 NActive=    2 NUniq=    2 SFac= 1.00D+00 NAtFMM=   60 NAOKFM=F Big=F
 Integral buffers will be    131072 words long.
 Raffenetti 2 integral format.
 Two-electron integral symmetry is turned on.
 One-electron integrals computed using PRISM.
 NBasis=    49 RedAO= T EigKep=  4.10D-03  NBF=    26     3    10    10
 NBsUse=    49 1.00D-06 EigRej= -1.00D+00 NBFU=    26     3    10    10
 Initial guess from the checkpoint file:  "gacl.chk"
 B after Tr=     0.000000    0.000000    0.000000
         Rot=    1.000000    0.000000    0.000000    0.000000 Ang=   0.00 deg.
 Initial guess orbital symmetries:
       Occupied  (SG) (SG) (SG) (PI) (PI) (SG) (SG) (SG) (PI) (PI)
                 (SG) (PI) (PI) (SG) (SG) (DLTA) (DLTA) (PI) (PI)
                 (SG) (SG) (PI) (PI) (SG)
       Virtual   (SG) (SG) (SG) (SG) (SG) (SG) (SG) (DLTA) (SG)
                 (DLTA) (SG) (SG) (SG) (DLTA) (DLTA) (PI) (PI)
                 (PI) (PI) (PI) (PI) (PI) (PI) (PI) (PI)
 ExpMin= 6.13D-02 ExpMax= 4.58D+05 ExpMxC= 4.45D+03 IAcc=2 IRadAn=         4 AccDes= 0.00D+00
 Harris functional with IExCor=  402 and IRadAn=       4 diagonalized for initial guess.
 HarFok:  IExCor=  402 AccDes= 0.00D+00 IRadAn=         4 IDoV= 1 UseB2=F ITyADJ=14
 ICtDFT=  3500011 ScaDFX=  1.000000  1.000000  1.000000  1.000000
 FoFCou: FMM=F IPFlag=           0 FMFlag=      100000 FMFlg1=           0
         NFxFlg=           0 DoJE=T BraDBF=F KetDBF=T FulRan=T
         wScrn=  0.000000 ICntrl=     500 IOpCl=  0 I1Cent=   200000004 NGrid=           0
         NMat0=    1 NMatS0=      1 NMatT0=    0 NMatD0=    1 NMtDS0=    0 NMtDT0=    0
 Petite list used in FoFCou.
 Keep R1 ints in memory in symmetry-blocked form, NReq=1758359.
 Requested convergence on RMS density matrix=1.00D-08 within  64 cycles.
 Requested convergence on MAX density matrix=1.00D-06.
 Requested convergence on             energy=1.00D-06.
 No special actions if energy rises.
 Integral accuracy reduced to 1.0D-05 until final iterations.
 Initial convergence to 1.0D-05 achieved.  Increase integral accuracy.
 SCF Done:  E(RB3LYP) =  -2383.18930167     A.U. after   11 cycles
            NFock= 11  Conv=0.47D-08     -V/T= 2.0038
 QCSCF skips out because SCF is already converged.
 Calling FoFJK, ICntrl=      2127 FMM=F ISym2X=1 I1Cent= 0 IOpClX= 0 NMat=1 NMatS=1 NMatT=0.
 ***** Axes restored to original set *****
 -------------------------------------------------------------------
 Center     Atomic                   Forces (Hartrees/Bohr)
 Number     Number              X              Y              Z
 -------------------------------------------------------------------
      1       31           0.000000000    0.000000000   -0.001358144
      2       17           0.000000000    0.000000000    0.001358144
 -------------------------------------------------------------------
 Cartesian Forces:  Max     0.001358144 RMS     0.000784125

 GradGradGradGradGradGradGradGradGradGradGradGradGradGradGradGradGradGrad
 Berny optimization.
 Using GEDIIS/GDIIS optimizer.
 Internal  Forces:  Max     0.001358144 RMS     0.001358144
 Search for a local minimum.
 Step number   2 out of a maximum of   20
 All quantities printed in internal units (Hartrees-Bohrs-Radians)
 Mixed Optimization -- RFO/linear search
 Update second derivatives using D2CorX and points    1    2
 DE= -5.26D-04 DEPred=-4.86D-04 R= 1.08D+00
 TightC=F SS=  1.41D+00  RLast= 8.38D-02 DXNew= 5.0454D-01 2.5133D-01
 Trust test= 1.08D+00 RLast= 8.38D-02 DXMaxT set to 3.00D-01
 The second derivative matrix:
                          R1
           R1           0.12120
 ITU=  1  0
 Use linear search instead of GDIIS.
     Eigenvalues ---    0.12120
 RFO step:  Lambda= 0.00000000D+00 EMin= 1.21202371D-01
 Quartic linear search produced a step of  0.14953.
 Iteration  1 RMS(Cart)=  0.00885826 RMS(Int)=  0.00000000
 Iteration  2 RMS(Cart)=  0.00000000 RMS(Int)=  0.00000000
 ClnCor:  largest displacement from symmetrization is 0.00D+00 for atom     0.
 Variable       Old X    -DE/DX   Delta X   Delta X   Delta X     New X
                                 (Linear)    (Quad)   (Total)
    R1        4.24117   0.00136   0.01253   0.00000   0.01253   4.25370
         Item               Value     Threshold  Converged?
 Maximum Force            0.001358     0.000450     NO 
 RMS     Force            0.001358     0.000300     NO 
 Maximum Displacement     0.006264     0.001800     NO 
 RMS     Displacement     0.008858     0.001200     NO 
 Predicted change in Energy=-7.503507D-06
 GradGradGradGradGradGradGradGradGradGradGradGradGradGradGradGradGradGrad

                          Input orientation:                          
 ---------------------------------------------------------------------
 Center     Atomic      Atomic             Coordinates (Angstroms)
 Number     Number       Type             X           Y           Z
 ---------------------------------------------------------------------
      1         31           0        0.000000    0.000000   -0.025481
      2         17           0        0.000000    0.000000    2.225481
 ---------------------------------------------------------------------
 Stoichiometry    ClGa
 Framework group  C*V[C*(ClGa)]
 Deg. of freedom     1
 Full point group                 C*V     NOp   4
 Largest Abelian subgroup         C2V     NOp   4
 Largest concise Abelian subgroup C1      NOp   1
                         Standard orientation:                         
 ---------------------------------------------------------------------
 Center     Atomic      Atomic             Coordinates (Angstroms)
 Number     Number       Type             X           Y           Z
 ---------------------------------------------------------------------
      1         31           0        0.000000    0.000000    0.797216
      2         17           0        0.000000    0.000000   -1.453746
 ---------------------------------------------------------------------
 Rotational constants (GHZ):      0.0000000      4.2994334      4.2994334
 Basis read from rwf:  (6D, 7F)
 There are    26 symmetry adapted cartesian basis functions of A1  symmetry.
 There are     3 symmetry adapted cartesian basis functions of A2  symmetry.
 There are    10 symmetry adapted cartesian basis functions of B1  symmetry.
 There are    10 symmetry adapted cartesian basis functions of B2  symmetry.
 There are    26 symmetry adapted basis functions of A1  symmetry.
 There are     3 symmetry adapted basis functions of A2  symmetry.
 There are    10 symmetry adapted basis functions of B1  symmetry.
 There are    10 symmetry adapted basis functions of B2  symmetry.
    49 basis functions,   135 primitive gaussians,    49 cartesian basis functions
    24 alpha electrons       24 beta electrons
       nuclear repulsion energy       123.8920756676 Hartrees.
 NAtoms=    2 NActive=    2 NUniq=    2 SFac= 1.00D+00 NAtFMM=   60 NAOKFM=F Big=F
 Integral buffers will be    131072 words long.
 Raffenetti 2 integral format.
 Two-electron integral symmetry is turned on.
 One-electron integrals computed using PRISM.
 NBasis=    49 RedAO= T EigKep=  4.10D-03  NBF=    26     3    10    10
 NBsUse=    49 1.00D-06 EigRej= -1.00D+00 NBFU=    26     3    10    10
 Initial guess from the checkpoint file:  "gacl.chk"
 B after Tr=     0.000000    0.000000    0.000000
         Rot=    1.000000    0.000000    0.000000    0.000000 Ang=   0.00 deg.
 Initial guess orbital symmetries:
       Occupied  (SG) (SG) (SG) (PI) (PI) (SG) (SG) (SG) (PI) (PI)
                 (SG) (PI) (PI) (SG) (SG) (DLTA) (DLTA) (PI) (PI)
                 (SG) (SG) (PI) (PI) (SG)
       Virtual   (SG) (SG) (SG) (SG) (SG) (SG) (SG) (DLTA) (SG)
                 (DLTA) (SG) (SG) (SG) (DLTA) (DLTA) (PI) (PI)
                 (PI) (PI) (PI) (PI) (PI) (PI) (PI) (PI)
 Keep R1 ints in memory in symmetry-blocked form, NReq=1758315.
 Requested convergence on RMS density matrix=1.00D-08 within  64 cycles.
 Requested convergence on MAX density matrix=1.00D-06.
 Requested convergence on             energy=1.00D-06.
 No special actions if energy rises.
 SCF Done:  E(RB3LYP) =  -2383.18931013     A.U. after    8 cycles
            NFock=  8  Conv=0.18D-08     -V/T= 2.0038
 QCSCF skips out because SCF is already converged.
 Calling FoFJK, ICntrl=      2127 FMM=F ISym2X=1 I1Cent= 0 IOpClX= 0 NMat=1 NMatS=1 NMatT=0.
 ***** Axes restored to original set *****
 -------------------------------------------------------------------
 Center     Atomic                   Forces (Hartrees/Bohr)
 Number     Number              X              Y              Z
 -------------------------------------------------------------------
      1       31           0.000000000    0.000000000    0.000001254
      2       17           0.000000000    0.000000000   -0.000001254
 -------------------------------------------------------------------
 Cartesian Forces:  Max     0.000001254 RMS     0.000000724

 GradGradGradGradGradGradGradGradGradGradGradGradGradGradGradGradGradGrad
 Berny optimization.
 Using GEDIIS/GDIIS optimizer.
 Internal  Forces:  Max     0.000001254 RMS     0.000001254
 Search for a local minimum.
 Step number   3 out of a maximum of   20
 All quantities printed in internal units (Hartrees-Bohrs-Radians)
 Mixed Optimization -- En-DIIS/RFO-DIIS
 Update second derivatives using D2CorX and points    2    3
 DE= -8.46D-06 DEPred=-7.50D-06 R= 1.13D+00
 TightC=F SS=  1.41D+00  RLast= 1.25D-02 DXNew= 5.0454D-01 3.7582D-02
 Trust test= 1.13D+00 RLast= 1.25D-02 DXMaxT set to 3.00D-01
 The second derivative matrix:
                          R1
           R1           0.10851
 ITU=  1  1
 Use linear search instead of GDIIS.
     Eigenvalues ---    0.10851
 RFO step:  Lambda= 0.00000000D+00 EMin= 1.08513301D-01
 Quartic linear search produced a step of -0.00094.
 Iteration  1 RMS(Cart)=  0.00000829 RMS(Int)=  0.00000000
 Iteration  2 RMS(Cart)=  0.00000000 RMS(Int)=  0.00000000
 ClnCor:  largest displacement from symmetrization is 0.00D+00 for atom     0.
 Variable       Old X    -DE/DX   Delta X   Delta X   Delta X     New X
                                 (Linear)    (Quad)   (Total)
    R1        4.25370   0.00000  -0.00001   0.00000  -0.00001   4.25369
         Item               Value     Threshold  Converged?
 Maximum Force            0.000001     0.000450     YES
 RMS     Force            0.000001     0.000300     YES
 Maximum Displacement     0.000006     0.001800     YES
 RMS     Displacement     0.000008     0.001200     YES
 Predicted change in Energy=-7.243360D-12
 Optimization completed.
    -- Stationary point found.
                           ----------------------------
                           !   Optimized Parameters   !
                           ! (Angstroms and Degrees)  !
 --------------------------                            --------------------------
 ! Name  Definition              Value          Derivative Info.                !
 --------------------------------------------------------------------------------
 ! R1    R(1,2)                  2.251          -DE/DX =    0.0                 !
 --------------------------------------------------------------------------------
 GradGradGradGradGradGradGradGradGradGradGradGradGradGradGradGradGradGrad

                          Input orientation:                          
 ---------------------------------------------------------------------
 Center     Atomic      Atomic             Coordinates (Angstroms)
 Number     Number       Type             X           Y           Z
 ---------------------------------------------------------------------
      1         31           0        0.000000    0.000000   -0.025481
      2         17           0        0.000000    0.000000    2.225481
 ---------------------------------------------------------------------
 Stoichiometry    ClGa
 Framework group  C*V[C*(ClGa)]
 Deg. of freedom     1
 Full point group                 C*V     NOp   4
 Largest Abelian subgroup         C2V     NOp   4
 Largest concise Abelian subgroup C1      NOp   1
                         Standard orientation:                         
 ---------------------------------------------------------------------
 Center     Atomic      Atomic             Coordinates (Angstroms)
 Number     Number       Type             X           Y           Z
 ---------------------------------------------------------------------
      1         31           0        0.000000    0.000000    0.797216
      2         17           0        0.000000    0.000000   -1.453746
 ---------------------------------------------------------------------
 Rotational constants (GHZ):      0.0000000      4.2994334      4.2994334

 **********************************************************************

            Population analysis using the SCF density.

 **********************************************************************

 Orbital symmetries:
       Occupied  (SG) (SG) (SG) (PI) (PI) (SG) (SG) (SG) (PI) (PI)
                 (SG) (PI) (PI) (SG) (SG) (DLTA) (DLTA) (PI) (PI)
                 (SG) (SG) (PI) (PI) (SG)
       Virtual   (PI) (PI) (SG) (SG) (PI) (PI) (SG) (DLTA) (DLTA)
                 (PI) (PI) (SG) (PI) (PI) (SG) (SG) (SG) (DLTA)
                 (DLTA) (PI) (PI) (SG) (SG) (SG) (SG)
 The electronic state is 1-SG.
 Alpha  occ. eigenvalues -- -372.55187-101.51130 -45.40535 -40.72655 -40.72655
 Alpha  occ. eigenvalues --  -40.72594  -9.42913  -7.18812  -7.18556  -7.18556
 Alpha  occ. eigenvalues --   -5.41590  -3.80053  -3.80053  -3.79597  -0.85684
 Alpha  occ. eigenvalues --   -0.85387  -0.85386  -0.85033  -0.85033  -0.77653
 Alpha  occ. eigenvalues --   -0.41063  -0.30881  -0.30881  -0.27031
 Alpha virt. eigenvalues --   -0.07273  -0.07273   0.00946   0.06972   0.21162
 Alpha virt. eigenvalues --    0.21162   0.21316   0.22483   0.22489   0.25565
 Alpha virt. eigenvalues --    0.25565   0.30690   0.50842   0.50842   0.51314
 Alpha virt. eigenvalues --    0.57102   0.62571   0.89914   0.89915   0.95208
 Alpha virt. eigenvalues --    0.95208   1.11832   4.12502   4.28894  18.86892
          Condensed to atoms (all electrons):
               1          2
     1  Ga  30.490955   0.214562
     2  Cl   0.214562  17.079921
 Mulliken charges:
               1
     1  Ga   0.294483
     2  Cl  -0.294483
 Sum of Mulliken charges =   0.00000
 Mulliken charges with hydrogens summed into heavy atoms:
               1
     1  Ga   0.294483
     2  Cl  -0.294483
 Electronic spatial extent (au):  <R**2>=            263.7025
 Charge=              0.0000 electrons
 Dipole moment (field-independent basis, Debye):
    X=              0.0000    Y=              0.0000    Z=              2.5954  Tot=              2.5954
 Quadrupole moment (field-independent basis, Debye-Ang):
   XX=            -27.5670   YY=            -27.5670   ZZ=            -32.3546
   XY=              0.0000   XZ=              0.0000   YZ=              0.0000
 Traceless Quadrupole moment (field-independent basis, Debye-Ang):
   XX=              1.5959   YY=              1.5959   ZZ=             -3.1918
   XY=              0.0000   XZ=              0.0000   YZ=              0.0000
 Octapole moment (field-independent basis, Debye-Ang**2):
  XXX=              0.0000  YYY=              0.0000  ZZZ=             18.7379  XYY=              0.0000
  XXY=              0.0000  XXZ=              7.4070  XZZ=              0.0000  YZZ=              0.0000
  YYZ=              7.4070  XYZ=              0.0000
 Hexadecapole moment (field-independent basis, Debye-Ang**3):
 XXXX=            -34.5471 YYYY=            -34.5471 ZZZZ=           -272.3281 XXXY=              0.0000
 XXXZ=              0.0000 YYYX=              0.0000 YYYZ=              0.0000 ZZZX=              0.0000
 ZZZY=              0.0000 XXYY=            -11.5157 XXZZ=            -50.5537 YYZZ=            -50.5537
 XXYZ=              0.0000 YYXZ=              0.0000 ZZXY=              0.0000
 N-N= 1.238920756676D+02 E-N=-5.938146055231D+03  KE= 2.374119696247D+03
 Symmetry A1   KE= 1.777610812966D+03
 Symmetry A2   KE= 2.580903115524D+01
 Symmetry B1   KE= 2.853499260629D+02
 Symmetry B2   KE= 2.853499260629D+02
 1\1\GINC-GAMBA\FOpt\RB3LYP\Gen\Cl1Ga1\IRIKURA\17-May-2017\0\\# B3LYP/G
 EN gfinput OPT FREQ scf=xqc 6D\\BEB step 1: geom and freqs for gacl\\0
 ,1\Ga,0.,0.,-0.0254811392\Cl,0.,0.,2.2254811392\\Version=ES64L-G09RevD
 .01\State=1-SG\HF=-2383.1893101\RMSD=1.823e-09\RMSF=7.240e-07\Dipole=0
 .,0.,-1.0211287\Quadrupole=1.1864973,1.1864973,-2.3729947,0.,0.,0.\PG=
 C*V [C*(Cl1Ga1)]\\@


      TO SUSPECT YOUR OWN MORTALITY IS TO KNOW THE BEGINNING OF TERROR.
      TO LEARN IRREFUTABLY THAT YOU ARE MORTAL IS TO KNOW THE END
      OF TERROR.

                                                  -- JESSICA
                                                     CHILDREN OF DUNE
                                                     BY FRANK HERBERT
 Job cpu time:       0 days  0 hours  0 minutes 48.0 seconds.
 File lengths (MBytes):  RWF=      5 Int=      0 D2E=      0 Chk=      1 Scr=      1
 Normal termination of Gaussian 09 at Wed May 17 13:27:51 2017.
 Link1:  Proceeding to internal job step number  2.
 ------------------------------------------------------------------
 #N Geom=AllCheck Guess=TCheck SCRF=Check GenChk RB3LYP/ChkBas Freq
 ------------------------------------------------------------------
 1/10=4,29=7,30=1,38=1,40=1/1,3;
 2/12=2,40=1/2;
 3/5=7,6=2,8=2,11=2,14=-4,16=1,24=10,25=1,30=1,67=1,70=2,71=2,74=-5,82=7,116=1,140=1/1,2,3;
 4/5=101/1;
 5/5=2,8=3,13=1,98=1/2,8;
 8/6=4,10=90,11=11/1;
 11/6=1,8=1,9=11,15=111,16=1/1,2,10;
 10/6=1/2;
 6/7=2,8=2,9=2,10=2,18=1,28=1/1;
 7/8=1,10=1,25=1/1,2,3,16;
 1/10=4,30=1/3;
 99//99;
 Structure from the checkpoint file:  "gacl.chk"
 -----------------------------------
 BEB step 1: geom and freqs for gacl
 -----------------------------------
 Charge =  0 Multiplicity = 1
 Redundant internal coordinates found in file.
 Ga,0,0.,0.,-0.0254811392
 Cl,0,0.,0.,2.2254811392
 Recover connectivity data from disk.

 GradGradGradGradGradGradGradGradGradGradGradGradGradGradGradGradGradGrad
 Berny optimization.
 Initialization pass.
                           ----------------------------
                           !    Initial Parameters    !
                           ! (Angstroms and Degrees)  !
 --------------------------                            --------------------------
 ! Name  Definition              Value          Derivative Info.                !
 --------------------------------------------------------------------------------
 ! R1    R(1,2)                  2.251          calculate D2E/DX2 analytically  !
 --------------------------------------------------------------------------------
 Trust Radius=3.00D-01 FncErr=1.00D-07 GrdErr=1.00D-07
 Number of steps in this run=      2 maximum allowed number of steps=      2.
 GradGradGradGradGradGradGradGradGradGradGradGradGradGradGradGradGradGrad

                          Input orientation:                          
 ---------------------------------------------------------------------
 Center     Atomic      Atomic             Coordinates (Angstroms)
 Number     Number       Type             X           Y           Z
 ---------------------------------------------------------------------
      1         31           0        0.000000    0.000000   -0.025481
      2         17           0        0.000000    0.000000    2.225481
 ---------------------------------------------------------------------
 Stoichiometry    ClGa
 Framework group  C*V[C*(ClGa)]
 Deg. of freedom     1
 Full point group                 C*V     NOp   4
 Largest Abelian subgroup         C2V     NOp   4
 Largest concise Abelian subgroup C1      NOp   1
                         Standard orientation:                         
 ---------------------------------------------------------------------
 Center     Atomic      Atomic             Coordinates (Angstroms)
 Number     Number       Type             X           Y           Z
 ---------------------------------------------------------------------
      1         31           0        0.000000    0.000000    0.797216
      2         17           0        0.000000    0.000000   -1.453746
 ---------------------------------------------------------------------
 Rotational constants (GHZ):      0.0000000      4.2994334      4.2994334
 Basis read from chk: "gacl.chk" (6D, 7F)
 AO basis set in the form of general basis input (Overlap normalization):
      1 0
 S   8 1.00       0.000000000000
      0.4576000000D+06  0.2117728440D-03
      0.6847000000D+05  0.1651383315D-02
      0.1559000000D+05  0.8500539716D-02
      0.4450000000D+04  0.3443801514D-01
      0.1472000000D+04  0.1097406724D+00
      0.5413000000D+03  0.2700180463D+00
      0.2148000000D+03  0.4296242820D+00
      0.8881000000D+02  0.2833353444D+00
 S   2 1.00       0.000000000000
      0.2718000000D+02  0.3029691487D+00
      0.1154000000D+02  0.7240978426D+00
 S   1 1.00       0.000000000000
      0.3303000000D+01  0.1000000000D+01
 S   1 1.00       0.000000000000
      0.1334000000D+01  0.1000000000D+01
 S   1 1.00       0.000000000000
      0.1947000000D+00  0.1000000000D+01
 S   1 1.00       0.000000000000
      0.7158000000D-01  0.1000000000D+01
 P   6 1.00       0.000000000000
      0.3274000000D+04  0.1495943411D-02
      0.7654000000D+03  0.1346480978D-01
      0.2416000000D+03  0.6634386759D-01
      0.8939000000D+02  0.2329807818D+00
      0.3636000000D+02  0.4051517633D+00
      0.1560000000D+02  0.4423296556D+00
 P   3 1.00       0.000000000000
      0.6472000000D+01  0.2810145729D+00
      0.2748000000D+01  0.5204448020D+00
      0.1090000000D+01  0.3091752365D+00
 P   1 1.00       0.000000000000
      0.2202000000D+00  0.1000000000D+01
 P   1 1.00       0.000000000000
      0.6130000000D-01  0.1000000000D+01
 D   5 1.00       0.000000000000
      0.5966000000D+02  0.3196863577D-01
      0.1710000000D+02  0.1636242002D+00
      0.6030000000D+01  0.3672992195D+00
      0.2171000000D+01  0.4571634948D+00
      0.6844000000D+00  0.3048523506D+00
 D   1 1.00       0.000000000000
      0.1410000000D+00  0.1000000000D+01
 ****
      2 0
 S   6 1.00       0.000000000000
      0.2518010000D+05  0.1832959848D-02
      0.3780350000D+04  0.1403419883D-01
      0.8604740000D+03  0.6909739426D-01
      0.2421450000D+03  0.2374519803D+00
      0.7733490000D+02  0.4830339599D+00
      0.2624700000D+02  0.3398559718D+00
 SP   6 1.00       0.000000000000
      0.4917650000D+03 -0.2297391417D-02  0.3989400879D-02
      0.1169840000D+03 -0.3071371894D-01  0.3031770668D-01
      0.3741530000D+02 -0.1125280694D+00  0.1298800286D+00
      0.1378340000D+02  0.4501632776D-01  0.3279510723D+00
      0.5452150000D+01  0.5893533634D+00  0.4535271000D+00
      0.2225880000D+01  0.4652062868D+00  0.2521540556D+00
 SP   3 1.00       0.000000000000
      0.3186490000D+01 -0.2518280280D+00 -0.1429931472D-01
      0.1144270000D+01  0.6158925141D-01  0.3235723331D+00
      0.4203770000D+00  0.1060184328D+01  0.7435077653D+00
 SP   1 1.00       0.000000000000
      0.1426570000D+00  0.1000000000D+01  0.1000000000D+01
 D   1 1.00       0.000000000000
      0.7500000000D+00  0.1000000000D+01
 ****

 There are    26 symmetry adapted cartesian basis functions of A1  symmetry.
 There are     3 symmetry adapted cartesian basis functions of A2  symmetry.
 There are    10 symmetry adapted cartesian basis functions of B1  symmetry.
 There are    10 symmetry adapted cartesian basis functions of B2  symmetry.
 There are    26 symmetry adapted basis functions of A1  symmetry.
 There are     3 symmetry adapted basis functions of A2  symmetry.
 There are    10 symmetry adapted basis functions of B1  symmetry.
 There are    10 symmetry adapted basis functions of B2  symmetry.
    49 basis functions,   135 primitive gaussians,    49 cartesian basis functions
    24 alpha electrons       24 beta electrons
       nuclear repulsion energy       123.8920756676 Hartrees.
 NAtoms=    2 NActive=    2 NUniq=    2 SFac= 1.00D+00 NAtFMM=   60 NAOKFM=F Big=F
 Integral buffers will be    131072 words long.
 Raffenetti 2 integral format.
 Two-electron integral symmetry is turned on.
 One-electron integrals computed using PRISM.
 NBasis=    49 RedAO= T EigKep=  4.10D-03  NBF=    26     3    10    10
 NBsUse=    49 1.00D-06 EigRej= -1.00D+00 NBFU=    26     3    10    10
 Initial guess from the checkpoint file:  "gacl.chk"
 B after Tr=     0.000000    0.000000    0.000000
         Rot=    1.000000    0.000000    0.000000    0.000000 Ang=   0.00 deg.
 Initial guess orbital symmetries:
       Occupied  (SG) (SG) (SG) (PI) (PI) (SG) (SG) (SG) (PI) (PI)
                 (SG) (PI) (PI) (SG) (SG) (DLTA) (DLTA) (PI) (PI)
                 (SG) (SG) (PI) (PI) (SG)
       Virtual   (PI) (PI) (SG) (SG) (PI) (PI) (SG) (DLTA) (DLTA)
                 (PI) (PI) (SG) (PI) (PI) (SG) (SG) (SG) (DLTA)
                 (DLTA) (PI) (PI) (SG) (SG) (SG) (SG)
 Keep R1 ints in memory in symmetry-blocked form, NReq=1758315.
 Requested convergence on RMS density matrix=1.00D-08 within  64 cycles.
 Requested convergence on MAX density matrix=1.00D-06.
 Requested convergence on             energy=1.00D-06.
 No special actions if energy rises.
 SCF Done:  E(RB3LYP) =  -2383.18931013     A.U. after    1 cycles
            NFock=  1  Conv=0.29D-09     -V/T= 2.0038
 QCSCF skips out because SCF is already converged.
 DoSCS=F DFT=T ScalE2(SS,OS)=  1.000000  1.000000
 Range of M.O.s used for correlation:     1    49
 NBasis=    49 NAE=    24 NBE=    24 NFC=     0 NFV=     0
 NROrb=     49 NOA=    24 NOB=    24 NVA=    25 NVB=    25

 **** Warning!!: The largest alpha MO coefficient is  0.12585626D+02

 Symmetrizing basis deriv contribution to polar:
 IMax=3 JMax=2 DiffMx= 0.00D+00
 G2DrvN: will do     3 centers at a time, making    1 passes.
 Calling FoFCou, ICntrl=  3107 FMM=F I1Cent=   0 AccDes= 0.00D+00.
 End of G2Drv F.D. properties file   721 does not exist.
 End of G2Drv F.D. properties file   722 does not exist.
 End of G2Drv F.D. properties file   788 does not exist.
          IDoAtm=11
          Differentiating once with respect to electric field.
                with respect to dipole field.
          Differentiating once with respect to nuclear coordinates.
 Keep R1 ints in memory in symmetry-blocked form, NReq=1757753.
          There are     9 degrees of freedom in the 1st order CPHF.  IDoFFX=6 NUNeed=     3.
      6 vectors produced by pass  0 Test12= 6.67D-15 1.11D-08 XBig12= 7.74D+01 6.72D+00.
 AX will form     6 AO Fock derivatives at one time.
      6 vectors produced by pass  1 Test12= 6.67D-15 1.11D-08 XBig12= 1.52D+01 1.66D+00.
      6 vectors produced by pass  2 Test12= 6.67D-15 1.11D-08 XBig12= 8.00D-01 4.98D-01.
      6 vectors produced by pass  3 Test12= 6.67D-15 1.11D-08 XBig12= 9.78D-03 3.72D-02.
      6 vectors produced by pass  4 Test12= 6.67D-15 1.11D-08 XBig12= 7.94D-05 3.66D-03.
      6 vectors produced by pass  5 Test12= 6.67D-15 1.11D-08 XBig12= 5.15D-07 2.31D-04.
      4 vectors produced by pass  6 Test12= 6.67D-15 1.11D-08 XBig12= 4.34D-10 7.61D-06.
      1 vectors produced by pass  7 Test12= 6.67D-15 1.11D-08 XBig12= 3.34D-13 3.14D-07.
 InvSVY:  IOpt=1 It=  1 EMax= 4.44D-16
 Solved reduced A of dimension    41 with     6 vectors.
 Isotropic polarizability for W=    0.000000       42.03 Bohr**3.
 End of Minotr F.D. properties file   721 does not exist.
 End of Minotr F.D. properties file   722 does not exist.
 End of Minotr F.D. properties file   788 does not exist.

 **********************************************************************

            Population analysis using the SCF density.

 **********************************************************************

 Orbital symmetries:
       Occupied  (SG) (SG) (SG) (PI) (PI) (SG) (SG) (SG) (PI) (PI)
                 (SG) (PI) (PI) (SG) (SG) (DLTA) (DLTA) (PI) (PI)
                 (SG) (SG) (PI) (PI) (SG)
       Virtual   (PI) (PI) (SG) (SG) (PI) (PI) (SG) (DLTA) (DLTA)
                 (PI) (PI) (SG) (PI) (PI) (SG) (SG) (SG) (DLTA)
                 (DLTA) (PI) (PI) (SG) (SG) (SG) (SG)
 The electronic state is 1-SG.
 Alpha  occ. eigenvalues -- -372.55187-101.51130 -45.40535 -40.72655 -40.72655
 Alpha  occ. eigenvalues --  -40.72594  -9.42913  -7.18812  -7.18556  -7.18556
 Alpha  occ. eigenvalues --   -5.41590  -3.80053  -3.80053  -3.79597  -0.85684
 Alpha  occ. eigenvalues --   -0.85387  -0.85386  -0.85033  -0.85033  -0.77653
 Alpha  occ. eigenvalues --   -0.41063  -0.30881  -0.30881  -0.27031
 Alpha virt. eigenvalues --   -0.07273  -0.07273   0.00946   0.06972   0.21162
 Alpha virt. eigenvalues --    0.21162   0.21316   0.22483   0.22489   0.25565
 Alpha virt. eigenvalues --    0.25565   0.30690   0.50842   0.50842   0.51314
 Alpha virt. eigenvalues --    0.57102   0.62571   0.89914   0.89915   0.95208
 Alpha virt. eigenvalues --    0.95208   1.11832   4.12502   4.28894  18.86892
          Condensed to atoms (all electrons):
               1          2
     1  Ga  30.490955   0.214562
     2  Cl   0.214562  17.079921
 Mulliken charges:
               1
     1  Ga   0.294483
     2  Cl  -0.294483
 Sum of Mulliken charges =   0.00000
 Mulliken charges with hydrogens summed into heavy atoms:
               1
     1  Ga   0.294483
     2  Cl  -0.294483
 APT charges:
               1
     1  Ga   0.644684
     2  Cl  -0.644684
 Sum of APT charges =   0.00000
 APT charges with hydrogens summed into heavy atoms:
               1
     1  Ga   0.644684
     2  Cl  -0.644684
 Electronic spatial extent (au):  <R**2>=            263.7025
 Charge=              0.0000 electrons
 Dipole moment (field-independent basis, Debye):
    X=              0.0000    Y=              0.0000    Z=              2.5955  Tot=              2.5955
 Quadrupole moment (field-independent basis, Debye-Ang):
   XX=            -27.5670   YY=            -27.5670   ZZ=            -32.3547
   XY=              0.0000   XZ=              0.0000   YZ=              0.0000
 Traceless Quadrupole moment (field-independent basis, Debye-Ang):
   XX=              1.5959   YY=              1.5959   ZZ=             -3.1918
   XY=              0.0000   XZ=              0.0000   YZ=              0.0000
 Octapole moment (field-independent basis, Debye-Ang**2):
  XXX=              0.0000  YYY=              0.0000  ZZZ=             18.7379  XYY=              0.0000
  XXY=              0.0000  XXZ=              7.4070  XZZ=              0.0000  YZZ=              0.0000
  YYZ=              7.4070  XYZ=              0.0000
 Hexadecapole moment (field-independent basis, Debye-Ang**3):
 XXXX=            -34.5471 YYYY=            -34.5471 ZZZZ=           -272.3281 XXXY=              0.0000
 XXXZ=              0.0000 YYYX=              0.0000 YYYZ=              0.0000 ZZZX=              0.0000
 ZZZY=              0.0000 XXYY=            -11.5157 XXZZ=            -50.5537 YYZZ=            -50.5537
 XXYZ=              0.0000 YYXZ=              0.0000 ZZXY=              0.0000
 N-N= 1.238920756676D+02 E-N=-5.938146055170D+03  KE= 2.374119696246D+03
 Symmetry A1   KE= 1.777610812960D+03
 Symmetry A2   KE= 2.580903115145D+01
 Symmetry B1   KE= 2.853499260675D+02
 Symmetry B2   KE= 2.853499260675D+02
  Exact polarizability:  33.951   0.000  33.951   0.000   0.000  58.172
 Approx polarizability:  50.970   0.000  50.970   0.000   0.000  88.700
 Calling FoFJK, ICntrl=    100127 FMM=F ISym2X=1 I1Cent= 0 IOpClX= 0 NMat=1 NMatS=1 NMatT=0.
 Full mass-weighted force constant matrix:
 Low frequencies ---   -0.0168   -0.0167   -0.0085   25.1647   25.1647  349.0201
 Diagonal vibrational polarizability:
        0.0000000       0.0000000      19.6183119
 Harmonic frequencies (cm**-1), IR intensities (KM/Mole), Raman scattering
 activities (A**4/AMU), depolarization ratios for plane and unpolarized
 incident light, reduced masses (AMU), force constants (mDyne/A),
 and normal coordinates:
                      1
                     SG
 Frequencies --    349.0201
 Red. masses --     41.9200
 Frc consts  --      3.0087
 IR Inten    --     88.8034
  Atom  AN      X      Y      Z
     1  31     0.00   0.00   0.45
     2  17     0.00   0.00  -0.89

 -------------------
 - Thermochemistry -
 -------------------
 Temperature   298.150 Kelvin.  Pressure   1.00000 Atm.
 Atom     1 has atomic number 31 and mass  68.92558
 Atom     2 has atomic number 17 and mass  34.96885
 Molecular mass:   103.89443 amu.
 Principal axes and moments of inertia in atomic units:
                           1         2         3
     Eigenvalues --     0.00000 419.76257 419.76257
           X            0.00000   0.00000   1.00000
           Y            0.00000   1.00000   0.00000
           Z            1.00000   0.00000   0.00000
 This molecule is a prolate symmetric top.
 Rotational symmetry number  1.
 Rotational temperature (Kelvin)      0.20634
 Rotational constant (GHZ):           4.299433
 Zero-point vibrational energy       2087.6 (Joules/Mol)
                                    0.49895 (Kcal/Mol)
 Warning -- explicit consideration of   1 degrees of freedom as
           vibrations may cause significant error
 Vibrational temperatures:    502.16
          (Kelvin)
 
 Zero-point correction=                           0.000795 (Hartree/Particle)
 Thermal correction to Energy=                    0.003518
 Thermal correction to Enthalpy=                  0.004462
 Thermal correction to Gibbs Free Energy=        -0.022833
 Sum of electronic and zero-point Energies=          -2383.188515
 Sum of electronic and thermal Energies=             -2383.185792
 Sum of electronic and thermal Enthalpies=           -2383.184848
 Sum of electronic and thermal Free Energies=        -2383.212144
 
                     E (Thermal)             CV                S
                      KCal/Mol        Cal/Mol-Kelvin    Cal/Mol-Kelvin
 Total                    2.208              6.545             57.448
 Electronic               0.000              0.000              0.000
 Translational            0.889              2.981             39.832
 Rotational               0.592              1.987             16.446
 Vibrational              0.726              1.577              1.171
 Vibration     1          0.726              1.577              1.171
                       Q            Log10(Q)             Ln(Q)
 Total Bot       0.318138D+11         10.502616         24.183166
 Total V=0       0.738495D+11         10.868348         25.025295
 Vib (Bot)       0.528957D+00         -0.276579         -0.636847
 Vib (Bot)    1  0.528957D+00         -0.276579         -0.636847
 Vib (V=0)       0.122787D+01          0.089153          0.205282
 Vib (V=0)    1  0.122787D+01          0.089153          0.205282
 Electronic      0.100000D+01          0.000000          0.000000
 Translational   0.416240D+08          7.619344         17.544187
 Rotational      0.144495D+04          3.159851          7.275827
 ***** Axes restored to original set *****
 -------------------------------------------------------------------
 Center     Atomic                   Forces (Hartrees/Bohr)
 Number     Number              X              Y              Z
 -------------------------------------------------------------------
      1       31           0.000000000    0.000000000    0.000001253
      2       17           0.000000000    0.000000000   -0.000001253
 -------------------------------------------------------------------
 Cartesian Forces:  Max     0.000001253 RMS     0.000000723
 FormGI is forming the generalized inverse of G from B-inverse, IUseBI=4.

 GradGradGradGradGradGradGradGradGradGradGradGradGradGradGradGradGradGrad
 Berny optimization.
 Internal  Forces:  Max     0.000001253 RMS     0.000001253
 Search for a local minimum.
 Step number   1 out of a maximum of    2
 All quantities printed in internal units (Hartrees-Bohrs-Radians)
 Second derivative matrix not updated -- analytic derivatives used.
 The second derivative matrix:
                          R1
           R1           0.10695
 ITU=  0
     Eigenvalues ---    0.10695
 Angle between quadratic step and forces=   0.00 degrees.
 Linear search not attempted -- first point.
 Iteration  1 RMS(Cart)=  0.00000828 RMS(Int)=  0.00000000
 Iteration  2 RMS(Cart)=  0.00000000 RMS(Int)=  0.00000000
 ClnCor:  largest displacement from symmetrization is 0.00D+00 for atom     0.
 Variable       Old X    -DE/DX   Delta X   Delta X   Delta X     New X
                                 (Linear)    (Quad)   (Total)
    R1        4.25370   0.00000   0.00000  -0.00001  -0.00001   4.25369
         Item               Value     Threshold  Converged?
 Maximum Force            0.000001     0.000450     YES
 RMS     Force            0.000001     0.000300     YES
 Maximum Displacement     0.000006     0.001800     YES
 RMS     Displacement     0.000008     0.001200     YES
 Predicted change in Energy=-7.337281D-12
 Optimization completed.
    -- Stationary point found.
                           ----------------------------
                           !   Optimized Parameters   !
                           ! (Angstroms and Degrees)  !
 --------------------------                            --------------------------
 ! Name  Definition              Value          Derivative Info.                !
 --------------------------------------------------------------------------------
 ! R1    R(1,2)                  2.251          -DE/DX =    0.0                 !
 --------------------------------------------------------------------------------
 GradGradGradGradGradGradGradGradGradGradGradGradGradGradGradGradGradGrad

 1\1\GINC-GAMBA\Freq\RB3LYP\Gen\Cl1Ga1\IRIKURA\17-May-2017\0\\#N Geom=A
 llCheck Guess=TCheck SCRF=Check GenChk RB3LYP/ChkBas Freq\\BEB step 1:
  geom and freqs for gacl\\0,1\Ga,0.,0.,-0.0254811392\Cl,0.,0.,2.225481
 1392\\Version=ES64L-G09RevD.01\State=1-SG\HF=-2383.1893101\RMSD=2.922e
 -10\RMSF=7.233e-07\Thermal=0.003518\Dipole=0.,0.,-1.0211287\DipoleDeri
 v=0.2401771,0.,0.,0.,0.2401771,0.,0.,0.,1.4536968,-0.2401771,0.,0.,0.,
 -0.2401771,0.,0.,0.,-1.4536968\Polar=33.9514164,0.,33.9514164,0.,0.,58
 .1722855\PG=C*V [C*(Cl1Ga1)]\NImag=0\\0.00055596,0.,0.00055596,0.,0.,0
 .10694534,-0.00055596,0.,0.,0.00055596,0.,-0.00055596,0.,0.,0.00055596
 ,0.,0.,-0.10694534,0.,0.,0.10694534\\0.,0.,-0.00000125,0.,0.,0.0000012
 5\\\@


 Some scientists claim that hydrogen, because it is so
 plentiful, is the basic building block of the universe. 
 I dispute that. I say that stupidity is far more
 abundant than hydrogen, and THAT is the basic building 
 block of the universe.
                   --Frank Zappa
 Job cpu time:       0 days  0 hours  0 minutes 32.3 seconds.
 File lengths (MBytes):  RWF=      5 Int=      0 D2E=      0 Chk=      1 Scr=      1
 Normal termination of Gaussian 09 at Wed May 17 13:28:00 2017.
