 Entering Gaussian System, Link 0=g09
 AtFile(1): t_plusd.gbs
            -Al     0
            S   13   1.00
             205500.0000000              0.678836D-04
              30780.0000000              0.527149D-03
               7006.0000000              0.276203D-02
               1985.0000000              0.114728D-01
                649.1000000              0.398188D-01
                235.0000000              0.115040D+00
                 91.6200000              0.260887D+00
                 37.6700000              0.396386D+00
                 15.9100000              0.284597D+00
                  5.8500000              0.444583D-01
                  2.5420000             -0.489838D-02
                  1.0570000              0.261253D-02
                  0.1455000              0.722068D-03
            S   13   1.00
             205500.0000000             -0.176377D-04
              30780.0000000             -0.137195D-03
               7006.0000000             -0.718910D-03
               1985.0000000             -0.301146D-02
                649.1000000             -0.106014D-01
                235.0000000             -0.321345D-01
                 91.6200000             -0.803156D-01
                 37.6700000             -0.156794D+00
                 15.9100000             -0.168376D+00
                  5.8500000              0.126879D+00
                  2.5420000              0.561494D+00
                  1.0570000              0.436613D+00
                  0.1455000             -0.114563D-01
            S   13   1.00
             205500.0000000              0.407315D-05
              30780.0000000              0.316566D-04
               7006.0000000              0.166116D-03
               1985.0000000              0.694992D-03
                649.1000000              0.245511D-02
                235.0000000              0.744598D-02
                 91.6200000              0.188253D-01
                 37.6700000              0.372772D-01
                 15.9100000              0.419496D-01
                  5.8500000             -0.354375D-01
                  2.5420000             -0.175132D+00
                  1.0570000             -0.276203D+00
                  0.1455000              0.652809D+00
            S   1   1.00
                  0.2931000              1.0000000
            S   1   1.00
                  0.0565000              1.0000000
            P   7   1.00
                444.4000000              0.162786D-02
                105.1000000              0.130687D-01
                 33.4700000              0.612341D-01
                 12.3300000              0.187870D+00
                  4.8690000              0.360452D+00
                  1.9610000              0.408454D+00
                  0.1888000              0.976514D-02
            P   7   1.00
                444.4000000             -0.286341D-03
                105.1000000             -0.242308D-02
                 33.4700000             -0.108658D-01
                 12.3300000             -0.364307D-01
                  4.8690000             -0.641074D-01
                  1.9610000             -0.972239D-01
                  0.1888000              0.503448D+00
            P   1   1.00
                  0.7834000              1.0000000
            P   1   1.00
                  0.0555700              1.0000000
            D   1   1.00
                  1.5700000              1.0000000
            D   1   1.00
                  0.3330000              1.0000000
            D   1   1.00
                  0.1110000              1.0000000
            F   1   1.00
                  0.2440000              1.0000000
            ****
            -Si     0
            S   13   1.00
             254900.0000000              0.625101D-04
              38190.0000000              0.485553D-03
               8690.0000000              0.254516D-02
               2462.0000000              0.105866D-01
                804.8000000              0.368787D-01
                291.3000000              0.107479D+00
                113.6000000              0.247936D+00
                 46.7500000              0.390927D+00
                 19.8200000              0.302026D+00
                  7.7080000              0.559236D-01
                  3.3400000             -0.402406D-02
                  1.4020000              0.258030D-02
                  0.2070000              0.607930D-03
            S   13   1.00
             254900.0000000             -0.166370D-04
              38190.0000000             -0.129310D-03
               8690.0000000             -0.678828D-03
               2462.0000000             -0.284117D-02
                804.8000000             -0.100551D-01
                291.3000000             -0.305774D-01
                113.6000000             -0.777256D-01
                 46.7500000             -0.154236D+00
                 19.8200000             -0.180368D+00
                  7.7080000              0.798218D-01
                  3.3400000              0.547441D+00
                  1.4020000              0.480119D+00
                  0.2070000             -0.106996D-01
            S   13   1.00
             254900.0000000              0.426257D-05
              38190.0000000              0.331062D-04
               8690.0000000              0.174015D-03
               2462.0000000              0.727574D-03
                804.8000000              0.258333D-02
                291.3000000              0.786354D-02
                113.6000000              0.202155D-01
                 46.7500000              0.407320D-01
                 19.8200000              0.499358D-01
                  7.7080000             -0.249396D-01
                  3.3400000             -0.190350D+00
                  1.4020000             -0.318350D+00
                  0.2070000              0.681180D+00
            S   1   1.00
                  0.4387000              1.0000000
            S   1   1.00
                  0.0794400              1.0000000
            P   7   1.00
                481.5000000              0.192045D-02
                113.9000000              0.153552D-01
                 36.2300000              0.713991D-01
                 13.3400000              0.213052D+00
                  5.2520000              0.390354D+00
                  2.1200000              0.393721D+00
                  0.2528000              0.395630D-02
            P   7   1.00
                481.5000000             -0.405220D-03
                113.9000000             -0.335896D-02
                 36.2300000             -0.152860D-01
                 13.3400000             -0.489218D-01
                  5.2520000             -0.855008D-01
                  2.1200000             -0.112137D+00
                  0.2528000              0.551919D+00
            P   1   1.00
                  0.8561000              1.0000000
            P   1   1.00
                  0.0788900              1.0000000
            D   1   1.00
                  2.3030000              1.0000000
            D   1   1.00
                  0.4760000              1.0000000
            D   1   1.00
                  0.1600000              1.0000000
            F   1   1.00
                  0.3360000              1.0000000
            ****
            -P     0
            S   13   1.00
             312400.0000000              0.576960D-04
              46800.0000000              0.448296D-03
              10650.0000000              0.234939D-02
               3018.0000000              0.978265D-02
                986.8000000              0.341467D-01
                357.4000000              0.100204D+00
                139.6000000              0.234372D+00
                 57.6300000              0.382434D+00
                 24.6000000              0.318088D+00
                 10.1200000              0.707788D-01
                  4.2830000             -0.181799D-02
                  1.8050000              0.216180D-02
                  0.2782000              0.432297D-03
            S   13   1.00
             312400.0000000             -0.156709D-04
              46800.0000000             -0.121724D-03
              10650.0000000             -0.639672D-03
               3018.0000000             -0.267426D-02
                986.8000000             -0.949831D-02
                357.4000000             -0.289349D-01
                139.6000000             -0.745121D-01
                 57.6300000             -0.149938D+00
                 24.6000000             -0.189467D+00
                 10.1200000              0.363270D-01
                  4.2830000              0.528816D+00
                  1.8050000              0.519115D+00
                  0.2782000             -0.925695D-02
            S   13   1.00
             312400.0000000              0.430631D-05
              46800.0000000              0.334194D-04
              10650.0000000              0.175885D-03
               3018.0000000              0.734340D-03
                986.8000000              0.261775D-02
                357.4000000              0.797852D-02
                139.6000000              0.207940D-01
                 57.6300000              0.424446D-01
                 24.6000000              0.563436D-01
                 10.1200000             -0.127358D-01
                  4.2830000             -0.196495D+00
                  1.8050000             -0.353555D+00
                  0.2782000              0.700912D+00
            S   1   1.00
                  0.6158000              1.0000000
            S   1   1.00
                  0.1055000              1.0000000
            P   7   1.00
                504.9000000              0.233728D-02
                119.4000000              0.185410D-01
                 37.9600000              0.849693D-01
                 13.9500000              0.244615D+00
                  5.4570000              0.422766D+00
                  2.1770000              0.368439D+00
                  0.2877000             -0.379005D-02
            P   7   1.00
                504.9000000             -0.555236D-03
                119.4000000             -0.445913D-02
                 37.9600000             -0.206350D-01
                 13.9500000             -0.617694D-01
                  5.4570000             -0.108924D+00
                  2.1770000             -0.105599D+00
                  0.2877000              0.576981D+00
            P   1   1.00
                  0.8010000              1.0000000
            P   1   1.00
                  0.0971400              1.0000000
            D   1   1.00
                  3.1200000              1.0000000
            D   1   1.00
                  0.6480000              1.0000000
            D   1   1.00
                  0.2180000              1.0000000
            F   1   1.00
                  0.4520000              1.0000000
            ****
            -S     0
            S   13   1.00
             374100.0000000              0.542140D-04
              56050.0000000              0.420855D-03
              12760.0000000              0.220698D-02
               3615.0000000              0.919258D-02
               1183.0000000              0.321123D-01
                428.8000000              0.946683D-01
                167.8000000              0.223630D+00
                 69.4700000              0.374393D+00
                 29.8400000              0.329108D+00
                 12.7200000              0.847038D-01
                  5.2440000              0.440851D-03
                  2.2190000              0.164827D-02
                  0.3490000              0.301306D-03
            S   13   1.00
             374100.0000000             -0.149837D-04
              56050.0000000             -0.116198D-03
              12760.0000000             -0.611583D-03
               3615.0000000             -0.255370D-02
               1183.0000000             -0.908708D-02
                428.8000000             -0.277045D-01
                167.8000000             -0.720020D-01
                 69.4700000             -0.146439D+00
                 29.8400000             -0.195150D+00
                 12.7200000              0.819193D-02
                  5.2440000              0.516601D+00
                  2.2190000              0.542178D+00
                  0.3490000             -0.918072D-02
            S   13   1.00
             374100.0000000              0.435066D-05
              56050.0000000              0.337140D-04
              12760.0000000              0.177674D-03
               3615.0000000              0.741116D-03
               1183.0000000              0.264591D-02
                428.8000000              0.807487D-02
                167.8000000              0.212276D-01
                 69.4700000              0.438323D-01
                 29.8400000              0.612716D-01
                 12.7200000             -0.361510D-02
                  5.2440000             -0.204510D+00
                  2.2190000             -0.381871D+00
                  0.3490000              0.714147D+00
            S   1   1.00
                  0.7767000              1.0000000
            S   1   1.00
                  0.1322000              1.0000000
            P   7   1.00
                574.4000000              0.242264D-02
                135.8000000              0.192796D-01
                 43.1900000              0.885401D-01
                 15.8700000              0.254654D+00
                  6.2080000              0.433984D+00
                  2.4830000              0.354953D+00
                  0.3229000             -0.502977D-02
            P   7   1.00
                574.4000000             -0.620102D-03
                135.8000000             -0.493882D-02
                 43.1900000             -0.232647D-01
                 15.8700000             -0.685195D-01
                  6.2080000             -0.123896D+00
                  2.4830000             -0.969499D-01
                  0.3229000              0.569394D+00
            P   1   1.00
                  0.8688000              1.0000000
            P   1   1.00
                  0.1098000              1.0000000
            D   1   1.00
                  3.7560000              1.0000000
            D   1   1.00
                  0.8120000              1.0000000
            D   1   1.00
                  0.2730000              1.0000000
            F   1   1.00
                  0.5570000              1.0000000
            ****
            -Cl     0
            S   13   1.00
             456100.0000000              0.492970D-04
              68330.0000000              0.383029D-03
              15550.0000000              0.200854D-02
               4405.0000000              0.838558D-02
               1439.0000000              0.294703D-01
                520.4000000              0.878325D-01
                203.1000000              0.211473D+00
                 83.9600000              0.365364D+00
                 36.2000000              0.340884D+00
                 15.8300000              0.102133D+00
                  6.3340000              0.311675D-02
                  2.6940000              0.105751D-02
                  0.4313000              0.156136D-03
            S   13   1.00
             456100.0000000             -0.138304D-04
              68330.0000000             -0.107279D-03
              15550.0000000             -0.565083D-03
               4405.0000000             -0.236135D-02
               1439.0000000             -0.845886D-02
                520.4000000             -0.259638D-01
                203.1000000             -0.686362D-01
                 83.9600000             -0.141874D+00
                 36.2000000             -0.199319D+00
                 15.8300000             -0.195662D-01
                  6.3340000              0.499741D+00
                  2.6940000              0.563736D+00
                  0.4313000             -0.835091D-02
            S   13   1.00
             456100.0000000              0.418546D-05
              68330.0000000              0.324395D-04
              15550.0000000              0.171105D-03
               4405.0000000              0.714176D-03
               1439.0000000              0.256705D-02
                520.4000000              0.788552D-02
                203.1000000              0.210867D-01
                 83.9600000              0.442264D-01
                 36.2000000              0.651670D-01
                 15.8300000              0.603012D-02
                  6.3340000             -0.206495D+00
                  2.6940000             -0.405871D+00
                  0.4313000              0.725661D+00
            S   1   1.00
                  0.9768000              1.0000000
            S   1   1.00
                  0.1625000              1.0000000
            P   7   1.00
                663.3000000              0.240448D-02
                156.8000000              0.192148D-01
                 49.9800000              0.885097D-01
                 18.4200000              0.256020D+00
                  7.2400000              0.436927D+00
                  2.9220000              0.350334D+00
                  0.3818000             -0.458423D-02
            P   7   1.00
                663.3000000             -0.652145D-03
                156.8000000             -0.519445D-02
                 49.9800000             -0.246938D-01
                 18.4200000             -0.728167D-01
                  7.2400000             -0.134030D+00
                  2.9220000             -0.947742D-01
                  0.3818000              0.564667D+00
            P   1   1.00
                  1.0220000              1.0000000
            P   1   1.00
                  0.1301000              1.0000000
            D   1   1.00
                  4.6100000              1.0000000
            D   1   1.00
                  1.0110000              1.0000000
            D   1   1.00
                  0.3390000              1.0000000
            F   1   1.00
                  0.7060000              1.0000000
            ****
            -Ar     0
            S   13   1.00
             545000.0000000              0.455828D-04
              81640.0000000              0.354108D-03
              18580.0000000              0.185797D-02
               5261.0000000              0.776851D-02
               1717.0000000              0.274232D-01
                619.9000000              0.823836D-01
                241.6000000              0.201230D+00
                 99.7900000              0.356781D+00
                 43.1500000              0.349563D+00
                 19.1400000              0.118266D+00
                  7.4880000              0.560190D-02
                  3.2050000              0.483473D-03
                  0.5204000              0.292025D-04
            S   13   1.00
             545000.0000000             -0.129551D-04
              81640.0000000             -0.100428D-03
              18580.0000000             -0.529583D-03
               5261.0000000             -0.221396D-02
               1717.0000000             -0.796845D-02
                619.9000000             -0.245803D-01
                241.6000000             -0.657798D-01
                 99.7900000             -0.137942D+00
                 43.1500000             -0.201630D+00
                 19.1400000             -0.412834D-01
                  7.4880000              0.484680D+00
                  3.2050000              0.579224D+00
                  0.5204000             -0.727553D-02
            S   13   1.00
             545000.0000000              0.404990D-05
              81640.0000000              0.313691D-04
              18580.0000000              0.165646D-03
               5261.0000000              0.691662D-03
               1717.0000000              0.249790D-02
                619.9000000              0.771074D-02
                241.6000000              0.208714D-01
                 99.7900000              0.443965D-01
                 43.1500000              0.680224D-01
                 19.1400000              0.141350D-01
                  7.4880000             -0.207489D+00
                  3.2050000             -0.425045D+00
                  0.5204000              0.733627D+00
            S   1   1.00
                  1.1960000              1.0000000
            S   1   1.00
                  0.1954000              1.0000000
            P   7   1.00
                761.8000000              0.236976D-02
                180.2000000              0.190199D-01
                 57.5000000              0.880807D-01
                 21.2400000              0.256377D+00
                  8.3880000              0.438711D+00
                  3.4160000              0.347569D+00
                  0.4523000             -0.523882D-02
            P   7   1.00
                761.8000000             -0.667211D-03
                180.2000000             -0.532717D-02
                 57.5000000             -0.255494D-01
                 21.2400000             -0.757197D-01
                  8.3880000             -0.141133D+00
                  3.4160000             -0.932768D-01
                  0.4523000              0.562450D+00
            P   1   1.00
                  1.2060000              1.0000000
            P   1   1.00
                  0.1545000              1.0000000
            D   1   1.00
                  5.5510000              1.0000000
            D   1   1.00
                  1.2350000              1.0000000
            D   1   1.00
                  0.4120000              1.0000000
            F   1   1.00
                  0.8900000              1.0000000
            ****
 Initial command:
 /usr/local/apps/g09/l1.exe "/wrk/irikura/Gau-29548.inp" -scrdir="/wrk/irikura/"
 Entering Link 1 = /usr/local/apps/g09/l1.exe PID=     29550.
  
 Copyright (c) 1988,1990,1992,1993,1995,1998,2003,2009,2013,
            Gaussian, Inc.  All Rights Reserved.
  
 This is part of the Gaussian(R) 09 program.  It is based on
 the Gaussian(R) 03 system (copyright 2003, Gaussian, Inc.),
 the Gaussian(R) 98 system (copyright 1998, Gaussian, Inc.),
 the Gaussian(R) 94 system (copyright 1995, Gaussian, Inc.),
 the Gaussian 92(TM) system (copyright 1992, Gaussian, Inc.),
 the Gaussian 90(TM) system (copyright 1990, Gaussian, Inc.),
 the Gaussian 88(TM) system (copyright 1988, Gaussian, Inc.),
 the Gaussian 86(TM) system (copyright 1986, Carnegie Mellon
 University), and the Gaussian 82(TM) system (copyright 1983,
 Carnegie Mellon University). Gaussian is a federally registered
 trademark of Gaussian, Inc.
  
 This software contains proprietary and confidential information,
 including trade secrets, belonging to Gaussian, Inc.
  
 This software is provided under written license and may be
 used, copied, transmitted, or stored only in accord with that
 written license.
  
 The following legend is applicable only to US Government
 contracts under FAR:
  
                    RESTRICTED RIGHTS LEGEND
  
 Use, reproduction and disclosure by the US Government is
 subject to restrictions as set forth in subparagraphs (a)
 and (c) of the Commercial Computer Software - Restricted
 Rights clause in FAR 52.227-19.
  
 Gaussian, Inc.
 340 Quinnipiac St., Bldg. 40, Wallingford CT 06492
  
  
 ---------------------------------------------------------------
 Warning -- This program may not be used in any manner that
 competes with the business of Gaussian, Inc. or will provide
 assistance to any competitor of Gaussian, Inc.  The licensee
 of this program is prohibited from giving any competitor of
 Gaussian, Inc. access to this program.  By using this program,
 the user acknowledges that Gaussian, Inc. is engaged in the
 business of creating and licensing software in the field of
 computational chemistry and represents and warrants to the
 licensee that it is not a competitor of Gaussian, Inc. and that
 it will not use this program in any manner prohibited above.
 ---------------------------------------------------------------
  

 Cite this work as:
 Gaussian 09, Revision D.01,
 M. J. Frisch, G. W. Trucks, H. B. Schlegel, G. E. Scuseria, 
 M. A. Robb, J. R. Cheeseman, G. Scalmani, V. Barone, B. Mennucci, 
 G. A. Petersson, H. Nakatsuji, M. Caricato, X. Li, H. P. Hratchian, 
 A. F. Izmaylov, J. Bloino, G. Zheng, J. L. Sonnenberg, M. Hada, 
 M. Ehara, K. Toyota, R. Fukuda, J. Hasegawa, M. Ishida, T. Nakajima, 
 Y. Honda, O. Kitao, H. Nakai, T. Vreven, J. A. Montgomery, Jr., 
 J. E. Peralta, F. Ogliaro, M. Bearpark, J. J. Heyd, E. Brothers, 
 K. N. Kudin, V. N. Staroverov, T. Keith, R. Kobayashi, J. Normand, 
 K. Raghavachari, A. Rendell, J. C. Burant, S. S. Iyengar, J. Tomasi, 
 M. Cossi, N. Rega, J. M. Millam, M. Klene, J. E. Knox, J. B. Cross, 
 V. Bakken, C. Adamo, J. Jaramillo, R. Gomperts, R. E. Stratmann, 
 O. Yazyev, A. J. Austin, R. Cammi, C. Pomelli, J. W. Ochterski, 
 R. L. Martin, K. Morokuma, V. G. Zakrzewski, G. A. Voth, 
 P. Salvador, J. J. Dannenberg, S. Dapprich, A. D. Daniels, 
 O. Farkas, J. B. Foresman, J. V. Ortiz, J. Cioslowski, 
 and D. J. Fox, Gaussian, Inc., Wallingford CT, 2013.
 
 ******************************************
 Gaussian 09:  ES64L-G09RevD.01 24-Apr-2013
                17-May-2017 
 ******************************************
 %chk=gacl.chk
 %nprocs=4
 Will use up to    4 processors via shared memory.
 %mem=1000mw
 ---------------------------------------------------
 # CCSD(T,maxcyc=100)/GEN gfinput geom=check scf=xqc
 ---------------------------------------------------
 1/29=2,38=1/1;
 2/12=2,40=1/2;
 3/5=7,11=9,14=-4,16=1,24=10,25=1,30=1/1,2,3;
 4//1;
 5/5=2,8=3,13=1,38=5/2,8;
 8/6=4,9=120000,10=1/1,4;
 9/5=7,6=100,14=2/13;
 6/7=2,8=2,9=2,10=2/1;
 99/5=1,9=1/99;
 -----------------------------------------------
 BEB step 8: low-spin CCSD(T) for cation of gacl
 -----------------------------------------------
 Structure from the checkpoint file:  "gacl.chk"
 Charge =  1 Multiplicity = 2
 Redundant internal coordinates found in file.
 Ga,0,0.,0.,-0.0254811392
 Cl,0,0.,0.,2.2254811392
 Recover connectivity data from disk.
                          Input orientation:                          
 ---------------------------------------------------------------------
 Center     Atomic      Atomic             Coordinates (Angstroms)
 Number     Number       Type             X           Y           Z
 ---------------------------------------------------------------------
      1         31           0        0.000000    0.000000   -0.025481
      2         17           0        0.000000    0.000000    2.225481
 ---------------------------------------------------------------------
 Stoichiometry    ClGa(1+,2)
 Framework group  C*V[C*(ClGa)]
 Deg. of freedom     1
 Full point group                 C*V     NOp   4
 Largest Abelian subgroup         C2V     NOp   4
 Largest concise Abelian subgroup C1      NOp   1
                         Standard orientation:                         
 ---------------------------------------------------------------------
 Center     Atomic      Atomic             Coordinates (Angstroms)
 Number     Number       Type             X           Y           Z
 ---------------------------------------------------------------------
      1         31           0        0.000000    0.000000    0.797216
      2         17           0        0.000000    0.000000   -1.453746
 ---------------------------------------------------------------------
 Rotational constants (GHZ):      0.0000000      4.2994334      4.2994334
 General basis read from cards:  (5D, 7F)
 AO basis set in the form of general basis input (Overlap normalization):
      1 0
 S  15 1.00       0.000000000000
      0.6558157300D+07  0.8008158027D-05
      0.9820253400D+06  0.6226278094D-04
      0.2234676900D+06  0.3273299377D-03
      0.6328829100D+05  0.1380793013D-02
      0.2064294000D+05  0.5004370434D-02
      0.7450522400D+04  0.1607692206D-01
      0.2905074400D+04  0.4606058007D-01
      0.1204210000D+04  0.1153491383D+00
      0.5243045400D+03  0.2376839604D+00
      0.2374656300D+03  0.3537401788D+00
      0.1105786600D+03  0.2922010177D+00
      0.5137462400D+02  0.8117474810D-01
      0.2444084600D+02 -0.8103897110D-03
      0.5342119000D+01 -0.1174682719D-02
      0.1098773000D+01 -0.3050261631D-03
 S  12 1.00       0.000000000000
      0.2064294000D+05 -0.6354902797D-05
      0.7450522400D+04 -0.5966111341D-04
      0.2905074400D+04 -0.5017938212D-03
      0.1204210000D+04 -0.3044525486D-02
      0.5243045400D+03 -0.1528444937D-01
      0.2374656300D+03 -0.5422389487D-01
      0.1105786600D+03 -0.1049468607D+00
      0.5137462400D+02  0.3504138848D-01
      0.2444084600D+02  0.4735531539D+00
      0.1176859100D+02  0.5058759776D+00
      0.5342119000D+01  0.1058933575D+00
      0.1098773000D+01  0.2234606541D-02
 S  10 1.00       0.000000000000
      0.2905074400D+04 -0.6413695214D-05
      0.5243045400D+03 -0.4371154884D-04
      0.2374656300D+03  0.5357181274D-03
      0.1105786600D+03  0.2434072131D-02
      0.5137462400D+02  0.1496755558D-02
      0.2444084600D+02 -0.7846014673D-01
      0.1176859100D+02 -0.2302922104D+00
      0.5342119000D+01  0.1257404213D+00
      0.2495036000D+01  0.6680396045D+00
      0.1098773000D+01  0.4023067114D+00
 S   9 1.00       0.000000000000
      0.5243045400D+03 -0.1465725853D-04
      0.2374656300D+03  0.6723704040D-04
      0.5137462400D+02  0.3425122349D-03
      0.2444084600D+02 -0.5157399849D-02
      0.1176859100D+02 -0.1799234894D-01
      0.5342119000D+01  0.2033733900D-01
      0.2495036000D+01  0.2277564896D+00
      0.1098773000D+01  0.7062139107D+00
      0.2601800000D+00 -0.1313356223D+01
 S   1 1.00       0.000000000000
      0.1270790000D+00  0.1000000000D+01
 S   1 1.00       0.000000000000
      0.5440800000D-01  0.1000000000D+01
 P   9 1.00       0.000000000000
      0.8050167400D+04  0.3171647393D-03
      0.1907536100D+04  0.2767095722D-02
      0.6186274600D+03  0.1513318338D-01
      0.2353241700D+03  0.6000954585D-01
      0.9889964600D+02  0.1734678320D+00
      0.4424821500D+02  0.3414014109D+00
      0.2061742900D+02  0.3900889002D+00
      0.9780516000D+01  0.1838909611D+00
      0.4441238000D+01  0.2098107960D-01
 P   9 1.00       0.000000000000
      0.8050167400D+04 -0.2234135706D-05
      0.6186274600D+03 -0.1715007425D-03
      0.2353241700D+03 -0.6132689521D-03
      0.9889964600D+02 -0.6123322804D-02
      0.4424821500D+02 -0.1470146004D-01
      0.2061742900D+02 -0.3528922299D-01
      0.9780516000D+01  0.1186152103D+00
      0.4441238000D+01  0.3909162993D+00
      0.1964045000D+01  0.5901263542D+00
 P   8 1.00       0.000000000000
      0.6186274600D+03  0.2667262368D-03
      0.2353241700D+03 -0.6711756315D-03
      0.4424821500D+02 -0.1910591462D-01
      0.2061742900D+02  0.2536068234D-03
      0.9780516000D+01  0.3161144601D-01
      0.4441238000D+01  0.4176710187D+00
      0.1964045000D+01  0.3177630340D-01
      0.8335780000D+00  0.6910143848D+00
 P   1 1.00       0.000000000000
      0.1934450000D+00  0.1000000000D+01
 P   1 1.00       0.000000000000
      0.5611700000D-01  0.1000000000D+01
 D   7 1.00       0.000000000000
      0.2441474100D+03  0.2099960876D-02
      0.7306759500D+02  0.1710302620D-01
      0.2759208100D+02  0.7291567654D-01
      0.1154651800D+02  0.1980230990D+00
      0.5048628000D+01  0.3371221453D+00
      0.2178465000D+01  0.3810593978D+00
      0.9002530000D+00  0.2843478597D+00
 D   1 1.00       0.000000000000
      0.3373270000D+00  0.1000000000D+01
 D   1 1.00       0.000000000000
      0.1169000000D+00  0.1000000000D+01
 F   1 1.00       0.000000000000
      0.2881000000D+00  0.1000000000D+01
 ****
      2 0
 S  11 1.00       0.000000000000
      0.4561000000D+06  0.4931994985D-04
      0.6833000000D+05  0.3832069654D-03
      0.1555000000D+05  0.2009478163D-02
      0.4405000000D+04  0.8389501239D-02
      0.1439000000D+04  0.2948439504D-01
      0.5204000000D+03  0.8787599478D-01
      0.2031000000D+03  0.2115897588D+00
      0.8396000000D+02  0.3656115542D+00
      0.3620000000D+02  0.3412463495D+00
      0.1583000000D+02  0.1021625703D+00
      0.6334000000D+01  0.2142500341D-02
 S   9 1.00       0.000000000000
      0.4405000000D+04 -0.2204447291D-05
      0.1439000000D+04 -0.1711436735D-03
      0.5204000000D+03 -0.1279090931D-02
      0.2031000000D+03 -0.9329228843D-02
      0.8396000000D+02 -0.3989041931D-01
      0.3620000000D+02 -0.1055355078D+00
      0.1583000000D+02  0.9362179729D-02
      0.6334000000D+01  0.5105109260D+00
      0.2694000000D+01  0.5731504921D+00
 S   8 1.00       0.000000000000
      0.1439000000D+04  0.4124162199D-05
      0.2031000000D+03  0.2104155934D-03
      0.8396000000D+02  0.8480710786D-03
      0.3620000000D+02  0.4599171473D-02
      0.1583000000D+02  0.4508898864D-03
      0.6334000000D+01 -0.7367222261D-01
      0.2694000000D+01 -0.3620654654D+00
      0.4313000000D+00  0.1166145419D+01
 S   1 1.00       0.000000000000
      0.9768000000D+00  0.1000000000D+01
 S   1 1.00       0.000000000000
      0.1625000000D+00  0.1000000000D+01
 P   6 1.00       0.000000000000
      0.6633000000D+03  0.2472064066D-02
      0.1568000000D+03  0.1975502338D-01
      0.4998000000D+02  0.9099173548D-01
      0.1842000000D+02  0.2631878341D+00
      0.7240000000D+01  0.4490780732D+00
      0.2922000000D+01  0.3601830723D+00
 P   6 1.00       0.000000000000
      0.1568000000D+03  0.3027166250D-04
      0.4998000000D+02 -0.1225086593D-02
      0.1842000000D+02 -0.6015248783D-02
      0.7240000000D+01 -0.2764176479D-01
      0.2922000000D+01  0.4338088816D-03
      0.3818000000D+00  0.1003073285D+01
 P   1 1.00       0.000000000000
      0.1022000000D+01  0.1000000000D+01
 P   1 1.00       0.000000000000
      0.1301000000D+00  0.1000000000D+01
 D   1 1.00       0.000000000000
      0.4610000000D+01  0.1000000000D+01
 D   1 1.00       0.000000000000
      0.1011000000D+01  0.1000000000D+01
 D   1 1.00       0.000000000000
      0.3390000000D+00  0.1000000000D+01
 F   1 1.00       0.000000000000
      0.7060000000D+00  0.1000000000D+01
 ****

 There are    44 symmetry adapted cartesian basis functions of A1  symmetry.
 There are     8 symmetry adapted cartesian basis functions of A2  symmetry.
 There are    21 symmetry adapted cartesian basis functions of B1  symmetry.
 There are    21 symmetry adapted cartesian basis functions of B2  symmetry.
 There are    36 symmetry adapted basis functions of A1  symmetry.
 There are     8 symmetry adapted basis functions of A2  symmetry.
 There are    19 symmetry adapted basis functions of B1  symmetry.
 There are    19 symmetry adapted basis functions of B2  symmetry.
    82 basis functions,   296 primitive gaussians,    94 cartesian basis functions
    24 alpha electrons       23 beta electrons
       nuclear repulsion energy       123.8920756676 Hartrees.
 NAtoms=    2 NActive=    2 NUniq=    2 SFac= 1.00D+00 NAtFMM=   60 NAOKFM=F Big=F
 Integral buffers will be    131072 words long.
 Raffenetti 2 integral format.
 Two-electron integral symmetry is turned on.
 One-electron integrals computed using PRISM.
 NBasis=    82 RedAO= T EigKep=  1.23D-02  NBF=    36     8    19    19
 NBsUse=    82 1.00D-06 EigRej= -1.00D+00 NBFU=    36     8    19    19
 ExpMin= 5.44D-02 ExpMax= 6.56D+06 ExpMxC= 7.45D+03 IAcc=3 IRadAn=         5 AccDes= 0.00D+00
 Harris functional with IExCor=  205 and IRadAn=       5 diagonalized for initial guess.
 HarFok:  IExCor=  205 AccDes= 0.00D+00 IRadAn=         5 IDoV= 1 UseB2=F ITyADJ=14
 ICtDFT=  3500011 ScaDFX=  1.000000  1.000000  1.000000  1.000000
 FoFCou: FMM=F IPFlag=           0 FMFlag=      100000 FMFlg1=           0
         NFxFlg=           0 DoJE=T BraDBF=F KetDBF=T FulRan=T
         wScrn=  0.000000 ICntrl=     500 IOpCl=  0 I1Cent=   200000004 NGrid=           0
         NMat0=    1 NMatS0=      1 NMatT0=    0 NMatD0=    1 NMtDS0=    0 NMtDT0=    0
 Petite list used in FoFCou.
 Initial guess orbital symmetries:
 Alpha Orbitals:
       Occupied  (SG) (SG) (SG) (PI) (PI) (SG) (SG) (SG) (PI) (PI)
                 (SG) (SG) (PI) (PI) (SG) (PI) (PI) (DLTA) (DLTA)
                 (SG) (SG) (PI) (PI) (SG)
       Virtual   (PI) (PI) (SG) (SG) (SG) (PI) (PI) (DLTA) (DLTA)
                 (PI) (PI) (SG) (PI) (PI) (SG) (DLTA) (DLTA) (PI)
                 (PI) (SG) (PHI) (PHI) (DLTA) (DLTA) (SG) (DLTA)
                 (DLTA) (PI) (PI) (SG) (PI) (PI) (SG) (SG) (DLTA)
                 (DLTA) (PI) (PI) (SG) (PI) (PI) (PHI) (PHI) (DLTA)
                 (DLTA) (SG) (PI) (PI) (SG) (PI) (PI) (SG) (SG)
                 (DLTA) (DLTA) (PI) (PI) (SG)
 Beta  Orbitals:
       Occupied  (SG) (SG) (SG) (PI) (PI) (SG) (SG) (SG) (PI) (PI)
                 (SG) (SG) (PI) (PI) (SG) (PI) (PI) (DLTA) (DLTA)
                 (SG) (SG) (PI) (PI)
       Virtual   (SG) (PI) (PI) (SG) (SG) (SG) (PI) (PI) (DLTA)
                 (DLTA) (PI) (PI) (SG) (PI) (PI) (SG) (DLTA) (DLTA)
                 (PI) (PI) (SG) (PHI) (PHI) (DLTA) (DLTA) (SG)
                 (DLTA) (DLTA) (PI) (PI) (SG) (PI) (PI) (SG) (SG)
                 (DLTA) (DLTA) (PI) (PI) (SG) (PI) (PI) (PHI) (PHI)
                 (DLTA) (DLTA) (SG) (PI) (PI) (SG) (PI) (PI) (SG)
                 (SG) (DLTA) (DLTA) (PI) (PI) (SG)
 The electronic state of the initial guess is 2-SG.
 Initial guess <Sx>= 0.0000 <Sy>= 0.0000 <Sz>= 0.5000 <S**2>= 0.7500 S= 0.5000
 Keep R1 and R2 ints in memory in symmetry-blocked form, NReq=9102715.
 Requested convergence on RMS density matrix=1.00D-08 within  64 cycles.
 Requested convergence on MAX density matrix=1.00D-06.
 Requested convergence on             energy=1.00D-06.
 No special actions if energy rises.
 SCF Done:  E(UHF) =  -2382.55362416     A.U. after   14 cycles
            NFock= 14  Conv=0.79D-08     -V/T= 2.0000
 <Sx>= 0.0000 <Sy>= 0.0000 <Sz>= 0.5000 <S**2>= 0.7894 S= 0.5195
 <L.S>= 0.000000000000E+00
 Annihilation of the first spin contaminant:
 S**2 before annihilation     0.7894,   after     0.7502
 QCSCF skips out because SCF is already converged.
 ExpMin= 5.44D-02 ExpMax= 6.56D+06 ExpMxC= 7.45D+03 IAcc=3 IRadAn=         5 AccDes= 0.00D+00
 HarFok:  IExCor=  205 AccDes= 0.00D+00 IRadAn=         5 IDoV=-2 UseB2=F ITyADJ=14
 ICtDFT= 12500011 ScaDFX=  1.000000  1.000000  1.000000  1.000000
 Range of M.O.s used for correlation:    15    82
 NBasis=    82 NAE=    24 NBE=    23 NFC=    14 NFV=     0
 NROrb=     68 NOA=    10 NOB=     9 NVA=    58 NVB=    59
 Semi-Direct transformation.
 ModeAB=           2 MOrb=            10 LenV=    1048158157
 LASXX=       354640 LTotXX=      354640 LenRXX=      354640
 LTotAB=      381552 MaxLAS=     3036200 LenRXY=     3036200
 NonZer=     3162680 LenScr=     5501440 LnRSAI=           0
 LnScr1=           0 LExtra=           0 Total=      8892280
 MaxDsk=          -1 SrtSym=           F ITran=            4
 JobTyp=1 Pass  1:  I=   1 to  10.
 (rs|ai) integrals will be sorted in core.
 ModeAB=           2 MOrb=             9 LenV=    1048158157
 LASXX=       322224 LTotXX=      322224 LenRXX=     2732580
 LTotAB=      251156 MaxLAS=     2732580 LenRXY=      251156
 NonZer=     2846412 LenScr=     4978176 LnRSAI=           0
 LnScr1=           0 LExtra=           0 Total=      7961912
 MaxDsk=          -1 SrtSym=           F ITran=            4
 JobTyp=2 Pass  1:  I=   1 to   9.
 (rs|ai) integrals will be sorted in core.
 Spin components of T(2) and E(2):
     alpha-alpha T2 =       0.1438803608D-01 E2=     -0.4034221438D-01
     alpha-beta  T2 =       0.7484727765D-01 E2=     -0.2025541381D+00
     beta-beta   T2 =       0.1373152973D-01 E2=     -0.3526658012D-01
 ANorm=    0.1050222283D+01
 E2 =    -0.2781629326D+00 EUMP2 =    -0.23828317870879D+04
 (S**2,0)=  0.78942D+00           (S**2,1)=  0.76637D+00
 E(PUHF)=      -0.23825588016D+04        E(PMP2)=      -0.23828354563D+04
 Keep R2 and R3 ints in memory in symmetry-blocked form, NReq=8944261.
 Iterations= 100 Convergence= 0.100D-06
 Iteration Nr.   1
 **********************
 DD1Dir will call FoFMem   1 times, MxPair=       262
 NAB=    90 NAA=    45 NBB=    36.
 E(PMP3)=      -0.23828509013D+04
 MP4(R+Q)=  0.64582540D-02
 E3=       -0.16962717D-01        EUMP3=      -0.23828487498D+04
 E4(DQ)=   -0.82633416D-03        UMP4(DQ)=   -0.23828495761D+04
 E4(SDQ)=  -0.61915660D-02        UMP4(SDQ)=  -0.23828549414D+04
 DE(Corr)= -0.28824709     E(Corr)=     -2382.8418712    
 NORM(A)=   0.10584161D+01
 Iteration Nr.   2
 **********************
 DD1Dir will call FoFMem   1 times, MxPair=       262
 NAB=    90 NAA=    45 NBB=    36.
 DE(Corr)= -0.29840928     E(CORR)=     -2382.8520334     Delta=-1.02D-02
 NORM(A)=   0.10644498D+01
 Iteration Nr.   3
 **********************
 DD1Dir will call FoFMem   1 times, MxPair=       262
 NAB=    90 NAA=    45 NBB=    36.
 DE(Corr)= -0.29920111     E(CORR)=     -2382.8528253     Delta=-7.92D-04
 NORM(A)=   0.10675511D+01
 Iteration Nr.   4
 **********************
 DD1Dir will call FoFMem   1 times, MxPair=       262
 NAB=    90 NAA=    45 NBB=    36.
 DE(Corr)= -0.30051347     E(CORR)=     -2382.8541376     Delta=-1.31D-03
 NORM(A)=   0.10687409D+01
 Iteration Nr.   5
 **********************
 DD1Dir will call FoFMem   1 times, MxPair=       262
 NAB=    90 NAA=    45 NBB=    36.
 DE(Corr)= -0.30069149     E(CORR)=     -2382.8543156     Delta=-1.78D-04
 NORM(A)=   0.10690292D+01
 Iteration Nr.   6
 **********************
 DD1Dir will call FoFMem   1 times, MxPair=       262
 NAB=    90 NAA=    45 NBB=    36.
 DE(Corr)= -0.30072373     E(CORR)=     -2382.8543479     Delta=-3.22D-05
 NORM(A)=   0.10690723D+01
 Iteration Nr.   7
 **********************
 DD1Dir will call FoFMem   1 times, MxPair=       262
 NAB=    90 NAA=    45 NBB=    36.
 DE(Corr)= -0.30072687     E(CORR)=     -2382.8543510     Delta=-3.14D-06
 NORM(A)=   0.10690872D+01
 Iteration Nr.   8
 **********************
 DD1Dir will call FoFMem   1 times, MxPair=       262
 NAB=    90 NAA=    45 NBB=    36.
 DE(Corr)= -0.30072560     E(CORR)=     -2382.8543498     Delta= 1.26D-06
 NORM(A)=   0.10690896D+01
 Iteration Nr.   9
 **********************
 DD1Dir will call FoFMem   1 times, MxPair=       262
 NAB=    90 NAA=    45 NBB=    36.
 DE(Corr)= -0.30073041     E(CORR)=     -2382.8543546     Delta=-4.80D-06
 NORM(A)=   0.10690923D+01
 Iteration Nr.  10
 **********************
 DD1Dir will call FoFMem   1 times, MxPair=       262
 NAB=    90 NAA=    45 NBB=    36.
 DE(Corr)= -0.30072968     E(CORR)=     -2382.8543538     Delta= 7.24D-07
 NORM(A)=   0.10690937D+01
 Iteration Nr.  11
 **********************
 DD1Dir will call FoFMem   1 times, MxPair=       262
 NAB=    90 NAA=    45 NBB=    36.
 DE(Corr)= -0.30073119     E(CORR)=     -2382.8543553     Delta=-1.51D-06
 NORM(A)=   0.10690954D+01
 Iteration Nr.  12
 **********************
 DD1Dir will call FoFMem   1 times, MxPair=       262
 NAB=    90 NAA=    45 NBB=    36.
 DE(Corr)= -0.30073138     E(CORR)=     -2382.8543555     Delta=-1.85D-07
 NORM(A)=   0.10690964D+01
 Iteration Nr.  13
 **********************
 DD1Dir will call FoFMem   1 times, MxPair=       262
 NAB=    90 NAA=    45 NBB=    36.
 DE(Corr)= -0.30073164     E(CORR)=     -2382.8543558     Delta=-2.56D-07
 NORM(A)=   0.10690968D+01
 Iteration Nr.  14
 **********************
 DD1Dir will call FoFMem   1 times, MxPair=       262
 NAB=    90 NAA=    45 NBB=    36.
 DE(Corr)= -0.30073174     E(CORR)=     -2382.8543559     Delta=-1.08D-07
 NORM(A)=   0.10690971D+01
 Iteration Nr.  15
 **********************
 DD1Dir will call FoFMem   1 times, MxPair=       262
 NAB=    90 NAA=    45 NBB=    36.
 DE(Corr)= -0.30073176     E(CORR)=     -2382.8543559     Delta=-1.79D-08
 NORM(A)=   0.10690971D+01
 Largest amplitude= 6.35D-02
 Time for triples=        9.24 seconds.
 T4(CCSD)= -0.16931122D-01
 T5(CCSD)=  0.10304575D-02
 CCSD(T)= -0.23828702566D+04

 S**2, projected HF & approx projected MPn energies after annihilation of
 unwanted spin states (see manual for definitions):

 spins       (S**2,0) (S**2,1)    PUHF        PMP2        PMP3        PMP4
 annihilated
 s+1         0.74987  0.75007-2382.558802-2382.835456-2382.850901
 s+1,s+2     0.75000  0.75000-2382.558777-2382.835437-2382.850887
 s+1 to s+3  0.75000  0.75000-2382.558777-2382.835437-2382.850887
 s+1 to s+4  0.75000  0.75000-2382.558777-2382.835437-2382.850887
 s+1 to s+5  0.75000  0.75000-2382.558777
 s+1 to s+6  0.75000  0.75000-2382.558777

 Discarding MO integrals.

 **********************************************************************

            Population analysis using the SCF density.

 **********************************************************************

 Orbital symmetries:
 Alpha Orbitals:
       Occupied  (SG) (SG) (SG) (PI) (PI) (SG) (SG) (SG) (PI) (PI)
                 (SG) (PI) (PI) (SG) (DLTA) (DLTA) (SG) (PI) (PI)
                 (SG) (SG) (PI) (PI) (SG)
       Virtual   (PI) (PI) (SG) (SG) (SG) (DLTA) (DLTA) (PI) (PI)
                 (PI) (PI) (SG) (SG) (PI) (PI) (DLTA) (DLTA) (PI)
                 (PI) (SG) (PHI) (PHI) (DLTA) (DLTA) (SG) (DLTA)
                 (DLTA) (PI) (PI) (SG) (PI) (PI) (SG) (SG) (DLTA)
                 (DLTA) (PI) (PI) (PI) (PI) (SG) (PHI) (PHI) (SG)
                 (DLTA) (DLTA) (PI) (PI) (SG) (PI) (PI) (SG) (SG)
                 (DLTA) (DLTA) (PI) (PI) (SG)
 Beta  Orbitals:
       Occupied  (SG) (SG) (SG) (PI) (PI) (SG) (SG) (PI) (PI) (SG)
                 (SG) (PI) (PI) (SG) (DLTA) (DLTA) (PI) (PI) (SG)
                 (SG) (SG) (PI) (PI)
       Virtual   (SG) (PI) (PI) (SG) (SG) (DLTA) (DLTA) (PI) (PI)
                 (SG) (PI) (PI) (SG) (PI) (PI) (SG) (DLTA) (DLTA)
                 (PI) (PI) (SG) (PHI) (PHI) (DLTA) (DLTA) (SG)
                 (DLTA) (DLTA) (PI) (PI) (SG) (PI) (PI) (SG) (SG)
                 (DLTA) (DLTA) (PI) (PI) (PI) (PI) (SG) (PHI) (PHI)
                 (DLTA) (DLTA) (SG) (PI) (PI) (SG) (PI) (PI) (SG)
                 (SG) (DLTA) (DLTA) (PI) (PI) (SG)
 The electronic state is 2-SG.
 Alpha  occ. eigenvalues -- -379.15246-105.07291 -48.49948 -42.82549 -42.82549
 Alpha  occ. eigenvalues --  -42.82455 -10.79453  -8.26979  -8.25762  -8.25762
 Alpha  occ. eigenvalues --   -6.73111  -4.81979  -4.81979  -4.81632  -1.53304
 Alpha  occ. eigenvalues --   -1.53304  -1.53090  -1.52802  -1.52802  -1.31215
 Alpha  occ. eigenvalues --   -0.81584  -0.68723  -0.68723  -0.66703
 Alpha virt. eigenvalues --   -0.20467  -0.20467  -0.11127  -0.03951   0.06732
 Alpha virt. eigenvalues --    0.06917   0.06917   0.07582   0.07582   0.10310
 Alpha virt. eigenvalues --    0.10310   0.15549   0.32754   0.33031   0.33031
 Alpha virt. eigenvalues --    0.42227   0.42227   0.48801   0.48801   0.50719
 Alpha virt. eigenvalues --    0.75461   0.75461   0.78882   0.78882   0.82848
 Alpha virt. eigenvalues --    0.85360   0.85360   0.87501   0.87501   0.94071
 Alpha virt. eigenvalues --    0.98390   0.98390   1.01658   1.31334   1.87585
 Alpha virt. eigenvalues --    1.87585   1.88718   1.88718   1.96725   1.96725
 Alpha virt. eigenvalues --    1.99942   2.20143   2.20143   2.20545   2.20935
 Alpha virt. eigenvalues --    2.20935   2.37685   2.37685   2.38831   2.44108
 Alpha virt. eigenvalues --    2.44108   3.12011   5.02329   8.42790   8.42790
 Alpha virt. eigenvalues --    8.49708   8.49708   8.58292
  Beta  occ. eigenvalues -- -379.15037-105.06763 -48.49741 -42.82532 -42.82532
  Beta  occ. eigenvalues --  -42.82284 -10.78933  -8.25466  -8.25466  -8.24657
  Beta  occ. eigenvalues --   -6.72455  -4.81758  -4.81758  -4.81289  -1.53117
  Beta  occ. eigenvalues --   -1.53117  -1.52638  -1.52638  -1.52627  -1.26198
  Beta  occ. eigenvalues --   -0.72613  -0.67859  -0.67859
  Beta virt. eigenvalues --   -0.30108  -0.17234  -0.17234  -0.07401  -0.02417
  Beta virt. eigenvalues --    0.07674   0.07674   0.08033   0.08033   0.10650
  Beta virt. eigenvalues --    0.12795   0.12795   0.16388   0.34271   0.34271
  Beta virt. eigenvalues --    0.35829   0.42530   0.42530   0.50979   0.50979
  Beta virt. eigenvalues --    0.54590   0.76503   0.76503   0.79881   0.79881
  Beta virt. eigenvalues --    0.84735   0.86909   0.86909   0.89681   0.89681
  Beta virt. eigenvalues --    0.95796   1.00166   1.00166   1.03658   1.33696
  Beta virt. eigenvalues --    1.87767   1.87767   1.90069   1.90069   1.98454
  Beta virt. eigenvalues --    1.98454   2.02349   2.20170   2.20170   2.22454
  Beta virt. eigenvalues --    2.22454   2.23174   2.38543   2.38543   2.40715
  Beta virt. eigenvalues --    2.45556   2.45556   3.14500   5.03018   8.42873
  Beta virt. eigenvalues --    8.42873   8.50338   8.50338   8.59128
          Condensed to atoms (all electrons):
               1          2
     1  Ga  29.653258   0.323179
     2  Cl   0.323179  16.700383
          Atomic-Atomic Spin Densities.
               1          2
     1  Ga   0.637033  -0.049641
     2  Cl  -0.049641   0.462250
 Mulliken charges and spin densities:
               1          2
     1  Ga   1.023563   0.587391
     2  Cl  -0.023563   0.412609
 Sum of Mulliken charges =   1.00000   1.00000
 Mulliken charges and spin densities with hydrogens summed into heavy atoms:
               1          2
     1  Ga   1.023563   0.587391
     2  Cl  -0.023563   0.412609
 Electronic spatial extent (au):  <R**2>=            247.1703
 Charge=              1.0000 electrons
 Dipole moment (field-independent basis, Debye):
    X=              0.0000    Y=              0.0000    Z=              4.2434  Tot=              4.2434
 Quadrupole moment (field-independent basis, Debye-Ang):
   XX=            -23.4869   YY=            -23.4869   ZZ=            -18.2784
   XY=              0.0000   XZ=              0.0000   YZ=              0.0000
 Traceless Quadrupole moment (field-independent basis, Debye-Ang):
   XX=             -1.7362   YY=             -1.7362   ZZ=              3.4724
   XY=              0.0000   XZ=              0.0000   YZ=              0.0000
 Octapole moment (field-independent basis, Debye-Ang**2):
  XXX=              0.0000  YYY=              0.0000  ZZZ=             18.4866  XYY=              0.0000
  XXY=              0.0000  XXZ=              9.9935  XZZ=              0.0000  YZZ=              0.0000
  YYZ=              9.9935  XYZ=              0.0000
 Hexadecapole moment (field-independent basis, Debye-Ang**3):
 XXXX=            -24.1168 YYYY=            -24.1168 ZZZZ=           -199.9865 XXXY=              0.0000
 XXXZ=              0.0000 YYYX=              0.0000 YYYZ=              0.0000 ZZZX=              0.0000
 ZZZY=              0.0000 XXYY=             -8.0389 XXZZ=            -40.9454 YYZZ=            -40.9454
 XXYZ=              0.0000 YYXZ=              0.0000 ZZXY=              0.0000
 N-N= 1.238920756676D+02 E-N=-5.936677061559D+03  KE= 2.382468466213D+03
 Symmetry A1   KE= 1.786647765026D+03
 Symmetry A2   KE= 2.627771680005D+01
 Symmetry B1   KE= 2.847714921938D+02
 Symmetry B2   KE= 2.847714921938D+02
 1\1\GINC-GAMBA\SP\UCCSD(T)-FC\Gen\Cl1Ga1(1+,2)\IRIKURA\17-May-2017\0\\
 # CCSD(T,maxcyc=100)/GEN gfinput geom=check scf=xqc\\BEB step 8: low-s
 pin CCSD(T) for cation of gacl\\1,2\Ga,0,0.,0.,-0.0254811392\Cl,0,0.,0
 .,2.2254811392\\Version=ES64L-G09RevD.01\State=2-SG\HF=-2382.5536242\M
 P2=-2382.8317871\MP3=-2382.8487498\MP4D=-2382.8560344\MP4DQ=-2382.8495
 761\PUHF=-2382.5588016\PMP2-0=-2382.8354563\PMP3-0=-2382.8509013\MP4SD
 Q=-2382.8549414\CCSD=-2382.8543559\CCSD(T)=-2382.8702566\S2=0.789415\S
 2-1=0.766375\S2A=0.750221\RMSD=7.854e-09\PG=C*V [C*(Cl1Ga1)]\\@


 YE HAVE SOWN MUCH, AND BRING IN LITTLE.
 YE EAT, BUT YE HAVE NOT ENOUGH.
 YE DRINK, BUT YE ARE NOT FILLED WITH DRINK.
 YE CLOTHE YOU, BUT THERE IS NONE WARM.
 AND HE THAT EARNETH WAGES EARNETH WAGES TO PUT
 IT INTO A BAG WITH HOLES.
                                     HAGGAI I,6
 Job cpu time:       0 days  0 hours  1 minutes 20.9 seconds.
 File lengths (MBytes):  RWF=     94 Int=      0 D2E=      0 Chk=      2 Scr=      1
 Normal termination of Gaussian 09 at Wed May 17 13:29:25 2017.
