 Entering Gaussian System, Link 0=g09
 Initial command:
 /usr/local/apps/g09/l1.exe "/wrk/irikura/Gau-30040.inp" -scrdir="/wrk/irikura/"
 Entering Link 1 = /usr/local/apps/g09/l1.exe PID=     30042.
  
 Copyright (c) 1988,1990,1992,1993,1995,1998,2003,2009,2013,
            Gaussian, Inc.  All Rights Reserved.
  
 This is part of the Gaussian(R) 09 program.  It is based on
 the Gaussian(R) 03 system (copyright 2003, Gaussian, Inc.),
 the Gaussian(R) 98 system (copyright 1998, Gaussian, Inc.),
 the Gaussian(R) 94 system (copyright 1995, Gaussian, Inc.),
 the Gaussian 92(TM) system (copyright 1992, Gaussian, Inc.),
 the Gaussian 90(TM) system (copyright 1990, Gaussian, Inc.),
 the Gaussian 88(TM) system (copyright 1988, Gaussian, Inc.),
 the Gaussian 86(TM) system (copyright 1986, Carnegie Mellon
 University), and the Gaussian 82(TM) system (copyright 1983,
 Carnegie Mellon University). Gaussian is a federally registered
 trademark of Gaussian, Inc.
  
 This software contains proprietary and confidential information,
 including trade secrets, belonging to Gaussian, Inc.
  
 This software is provided under written license and may be
 used, copied, transmitted, or stored only in accord with that
 written license.
  
 The following legend is applicable only to US Government
 contracts under FAR:
  
                    RESTRICTED RIGHTS LEGEND
  
 Use, reproduction and disclosure by the US Government is
 subject to restrictions as set forth in subparagraphs (a)
 and (c) of the Commercial Computer Software - Restricted
 Rights clause in FAR 52.227-19.
  
 Gaussian, Inc.
 340 Quinnipiac St., Bldg. 40, Wallingford CT 06492
  
  
 ---------------------------------------------------------------
 Warning -- This program may not be used in any manner that
 competes with the business of Gaussian, Inc. or will provide
 assistance to any competitor of Gaussian, Inc.  The licensee
 of this program is prohibited from giving any competitor of
 Gaussian, Inc. access to this program.  By using this program,
 the user acknowledges that Gaussian, Inc. is engaged in the
 business of creating and licensing software in the field of
 computational chemistry and represents and warrants to the
 licensee that it is not a competitor of Gaussian, Inc. and that
 it will not use this program in any manner prohibited above.
 ---------------------------------------------------------------
  

 Cite this work as:
 Gaussian 09, Revision D.01,
 M. J. Frisch, G. W. Trucks, H. B. Schlegel, G. E. Scuseria, 
 M. A. Robb, J. R. Cheeseman, G. Scalmani, V. Barone, B. Mennucci, 
 G. A. Petersson, H. Nakatsuji, M. Caricato, X. Li, H. P. Hratchian, 
 A. F. Izmaylov, J. Bloino, G. Zheng, J. L. Sonnenberg, M. Hada, 
 M. Ehara, K. Toyota, R. Fukuda, J. Hasegawa, M. Ishida, T. Nakajima, 
 Y. Honda, O. Kitao, H. Nakai, T. Vreven, J. A. Montgomery, Jr., 
 J. E. Peralta, F. Ogliaro, M. Bearpark, J. J. Heyd, E. Brothers, 
 K. N. Kudin, V. N. Staroverov, T. Keith, R. Kobayashi, J. Normand, 
 K. Raghavachari, A. Rendell, J. C. Burant, S. S. Iyengar, J. Tomasi, 
 M. Cossi, N. Rega, J. M. Millam, M. Klene, J. E. Knox, J. B. Cross, 
 V. Bakken, C. Adamo, J. Jaramillo, R. Gomperts, R. E. Stratmann, 
 O. Yazyev, A. J. Austin, R. Cammi, C. Pomelli, J. W. Ochterski, 
 R. L. Martin, K. Morokuma, V. G. Zakrzewski, G. A. Voth, 
 P. Salvador, J. J. Dannenberg, S. Dapprich, A. D. Daniels, 
 O. Farkas, J. B. Foresman, J. V. Ortiz, J. Cioslowski, 
 and D. J. Fox, Gaussian, Inc., Wallingford CT, 2013.
 
 ******************************************
 Gaussian 09:  ES64L-G09RevD.01 24-Apr-2013
                17-May-2017 
 ******************************************
 %chk=h2o.chk
 %nprocs=4
 Will use up to    4 processors via shared memory.
 %mem=1000mw
 -----------------------------------------------------------------
 # HF/GEN gfinput geom=check IOP(6/81=3) scf=xqc pop(all,thresh=1)
 -----------------------------------------------------------------
 1/29=2,38=1/1;
 2/12=2,40=1/2;
 3/5=7,11=9,14=-4,16=1,24=10,25=1,30=1/1,2,3;
 4//1;
 5/5=2,8=3,13=1,38=5/2,8;
 6/7=2,8=2,9=2,10=2,28=1,81=3,87=-1,88=1/1;
 99/5=1,9=1/99;
 ----------------------------------------
 BEB step 2: Hartree-Fock B and U for h2o
 ----------------------------------------
 Structure from the checkpoint file:  "h2o.chk"
 Charge =  0 Multiplicity = 1
 Redundant internal coordinates found in file.
 O,0,0.,0.,-0.1405046397
 H,0,0.,-0.7615598004,0.4580938899
 H,0,0.,0.7615598004,0.4580938899
 Recover connectivity data from disk.
                          Input orientation:                          
 ---------------------------------------------------------------------
 Center     Atomic      Atomic             Coordinates (Angstroms)
 Number     Number       Type             X           Y           Z
 ---------------------------------------------------------------------
      1          8           0        0.000000    0.000000   -0.140505
      2          1           0        0.000000   -0.761560    0.458094
      3          1           0        0.000000    0.761560    0.458094
 ---------------------------------------------------------------------
                    Distance matrix (angstroms):
                    1          2          3
     1  O    0.000000
     2  H    0.968656   0.000000
     3  H    0.968656   1.523120   0.000000
 Stoichiometry    H2O
 Framework group  C2V[C2(O),SGV(H2)]
 Deg. of freedom     2
 Full point group                 C2V     NOp   4
 Largest Abelian subgroup         C2V     NOp   4
 Largest concise Abelian subgroup C2      NOp   2
                         Standard orientation:                         
 ---------------------------------------------------------------------
 Center     Atomic      Atomic             Coordinates (Angstroms)
 Number     Number       Type             X           Y           Z
 ---------------------------------------------------------------------
      1          8           0        0.000000    0.000000    0.119720
      2          1           0        0.000000    0.761560   -0.478879
      3          1           0        0.000000   -0.761560   -0.478879
 ---------------------------------------------------------------------
 Rotational constants (GHZ):    787.9091958    432.3087586    279.1468894
 General basis read from cards:  (5D, 7F)
 AO basis set in the form of general basis input (Overlap normalization):
      1 0
 S   6 1.00       0.000000000000
      0.8588500000D+04  0.1895150083D-02
      0.1297230000D+04  0.1438590063D-01
      0.2992960000D+03  0.7073200310D-01
      0.8737710000D+02  0.2400010105D+00
      0.2567890000D+02  0.5947970261D+00
      0.3740040000D+01  0.2808020123D+00
 SP   3 1.00       0.000000000000
      0.4211750000D+02  0.1138890124D+00  0.3651139738D-01
      0.9628370000D+01  0.9208111006D+00  0.2371529830D+00
      0.2853320000D+01 -0.3274470358D-02  0.8197019412D+00
 SP   1 1.00       0.000000000000
      0.9056610000D+00  0.1000000000D+01  0.1000000000D+01
 SP   1 1.00       0.000000000000
      0.2556110000D+00  0.1000000000D+01  0.1000000000D+01
 D   1 1.00       0.000000000000
      0.1292000000D+01  0.1000000000D+01
 ****
      2 0
 S   3 1.00       0.000000000000
      0.3386500000D+02  0.2549381454D-01
      0.5094790000D+01  0.1903731086D+00
      0.1158790000D+01  0.8521614860D+00
 S   1 1.00       0.000000000000
      0.3258400000D+00  0.1000000000D+01
 S   1 1.00       0.000000000000
      0.1027410000D+00  0.1000000000D+01
 P   1 1.00       0.000000000000
      0.7500000000D+00  0.1000000000D+01
 ****
      3 0
 S   3 1.00       0.000000000000
      0.3386500000D+02  0.2549381454D-01
      0.5094790000D+01  0.1903731086D+00
      0.1158790000D+01  0.8521614860D+00
 S   1 1.00       0.000000000000
      0.3258400000D+00  0.1000000000D+01
 S   1 1.00       0.000000000000
      0.1027410000D+00  0.1000000000D+01
 P   1 1.00       0.000000000000
      0.7500000000D+00  0.1000000000D+01
 ****

 There are    15 symmetry adapted cartesian basis functions of A1  symmetry.
 There are     2 symmetry adapted cartesian basis functions of A2  symmetry.
 There are     5 symmetry adapted cartesian basis functions of B1  symmetry.
 There are     9 symmetry adapted cartesian basis functions of B2  symmetry.
 There are    14 symmetry adapted basis functions of A1  symmetry.
 There are     2 symmetry adapted basis functions of A2  symmetry.
 There are     5 symmetry adapted basis functions of B1  symmetry.
 There are     9 symmetry adapted basis functions of B2  symmetry.
    30 basis functions,    48 primitive gaussians,    31 cartesian basis functions
     5 alpha electrons        5 beta electrons
       nuclear repulsion energy         9.0882413160 Hartrees.
 NAtoms=    3 NActive=    3 NUniq=    2 SFac= 2.25D+00 NAtFMM=   60 NAOKFM=F Big=F
 Integral buffers will be    131072 words long.
 Raffenetti 1 integral format.
 Two-electron integral symmetry is turned on.
 One-electron integrals computed using PRISM.
 NBasis=    30 RedAO= T EigKep=  2.52D-02  NBF=    14     2     5     9
 NBsUse=    30 1.00D-06 EigRej= -1.00D+00 NBFU=    14     2     5     9
 ExpMin= 1.03D-01 ExpMax= 8.59D+03 ExpMxC= 1.30D+03 IAcc=1 IRadAn=         1 AccDes= 0.00D+00
 Harris functional with IExCor=  205 and IRadAn=       1 diagonalized for initial guess.
 HarFok:  IExCor=  205 AccDes= 0.00D+00 IRadAn=         1 IDoV= 1 UseB2=F ITyADJ=14
 ICtDFT=  3500011 ScaDFX=  1.000000  1.000000  1.000000  1.000000
 FoFCou: FMM=F IPFlag=           0 FMFlag=      100000 FMFlg1=           0
         NFxFlg=           0 DoJE=T BraDBF=F KetDBF=T FulRan=T
         wScrn=  0.000000 ICntrl=     500 IOpCl=  0 I1Cent=   200000004 NGrid=           0
         NMat0=    1 NMatS0=      1 NMatT0=    0 NMatD0=    1 NMtDS0=    0 NMtDT0=    0
 Petite list used in FoFCou.
 Initial guess orbital symmetries:
       Occupied  (A1) (A1) (B2) (A1) (B1)
       Virtual   (A1) (B2) (B2) (A1) (A1) (B1) (B2) (A1) (A1) (A2)
                 (B1) (B2) (B2) (A1) (A1) (B2) (B1) (A2) (A1) (A1)
                 (B2) (B1) (A1) (B2) (A1)
 The electronic state of the initial guess is 1-A1.
 Keep R1 ints in memory in symmetry-blocked form, NReq=949533.
 Requested convergence on RMS density matrix=1.00D-08 within  64 cycles.
 Requested convergence on MAX density matrix=1.00D-06.
 Requested convergence on             energy=1.00D-06.
 No special actions if energy rises.
 SCF Done:  E(RHF) =  -76.0454064231     A.U. after   11 cycles
            NFock= 11  Conv=0.90D-09     -V/T= 2.0004
 QCSCF skips out because SCF is already converged.

 **********************************************************************

            Population analysis using the SCF density.

 **********************************************************************

 Orbital symmetries:
       Occupied  (A1) (A1) (B2) (A1) (B1)
       Virtual   (A1) (B2) (B2) (A1) (A1) (B1) (B2) (A1) (A1) (A2)
                 (B1) (B2) (B2) (A1) (A1) (B2) (B1) (A2) (A1) (A1)
                 (B2) (B1) (A1) (B2) (A1)
 The electronic state is 1-A1.
 Alpha  occ. eigenvalues --  -20.54745  -1.33623  -0.69874  -0.57146  -0.49926
 Alpha virt. eigenvalues --    0.14859   0.21584   0.55943   0.60913   1.00027
 Alpha virt. eigenvalues --    1.00385   1.10837   1.31649   1.47963   1.51510
 Alpha virt. eigenvalues --    1.70955   1.91740   2.22871   2.37491   2.59534
 Alpha virt. eigenvalues --    2.78491   3.48977   3.53703   3.70537   3.99636
 Alpha virt. eigenvalues --    4.25320   5.32418   5.74123   6.15222  51.53667
          Condensed to atoms (all electrons):
               1          2          3
     1  O    7.859408   0.319312   0.319312
     2  H    0.319312   0.462450  -0.030777
     3  H    0.319312  -0.030777   0.462450
 Mulliken charges:
               1
     1  O   -0.498031
     2  H    0.249016
     3  H    0.249016
 Sum of Mulliken charges =   0.00000
 Mulliken charges with hydrogens summed into heavy atoms:
               1
     1  O    0.000000
 Electronic spatial extent (au):  <R**2>=             19.0748
 Charge=              0.0000 electrons
 Dipole moment (field-independent basis, Debye):
    X=              0.0000    Y=              0.0000    Z=             -2.1884  Tot=              2.1884
 Quadrupole moment (field-independent basis, Debye-Ang):
   XX=             -7.1971   YY=             -4.1539   ZZ=             -5.9800
   XY=              0.0000   XZ=              0.0000   YZ=              0.0000
 Traceless Quadrupole moment (field-independent basis, Debye-Ang):
   XX=             -1.4201   YY=              1.6231   ZZ=             -0.2030
   XY=              0.0000   XZ=              0.0000   YZ=              0.0000
 Octapole moment (field-independent basis, Debye-Ang**2):
  XXX=              0.0000  YYY=              0.0000  ZZZ=             -1.3430  XYY=              0.0000
  XXY=              0.0000  XXZ=             -0.3448  XZZ=              0.0000  YZZ=              0.0000
  YYZ=             -1.3775  XYZ=              0.0000
 Hexadecapole moment (field-independent basis, Debye-Ang**3):
 XXXX=             -5.2166 YYYY=             -5.7043 ZZZZ=             -6.2313 XXXY=              0.0000
 XXXZ=              0.0000 YYYX=              0.0000 YYYZ=              0.0000 ZZZX=              0.0000
 ZZZY=              0.0000 XXYY=             -2.1214 XXZZ=             -1.9695 YYZZ=             -1.6079
 XXYZ=              0.0000 YYXZ=              0.0000 ZZXY=              0.0000
 N-N= 9.088241315969D+00 E-N=-1.989773605877D+02  KE= 7.601633778215D+01
 Symmetry A1   KE= 6.793195468596D+01
 Symmetry A2   KE= 2.976139702239D-35
 Symmetry B1   KE= 4.578479482808D+00
 Symmetry B2   KE= 3.505903613384D+00

 Atomic contributions to Alpha molecular orbitals:
 Alpha occ 1 OE=-20.547 is O1-s=1.00
 Alpha occ 2 OE=-1.336 is O1-s=0.79 H2-s=0.08 H3-s=0.08 O1-p=0.02 H2-p=0.01 H3-p=0.01
 Alpha occ 3 OE=-0.699 is O1-p=0.60 H2-s=0.19 H3-s=0.19
 Alpha occ 4 OE=-0.571 is O1-p=0.75 O1-s=0.10 H3-s=0.07 H2-s=0.07
 Alpha occ 5 OE=-0.499 is O1-p=0.98 H2-p=0.01 H3-p=0.01
 Alpha vir 6 OE=0.149 is H3-s=0.54 H2-s=0.54 O1-s=-0.12 O1-p=0.03
 Alpha vir 7 OE=0.216 is H2-s=0.50 H3-s=0.50
 Alpha vir 8 OE=0.559 is H2-s=0.37 H3-s=0.37 O1-p=0.25
 Alpha vir 9 OE=0.609 is H2-s=0.47 H3-s=0.47 O1-p=0.08 H2-p=-0.01 H3-p=-0.01
 Alpha vir 10 OE=1.000 is O1-p=1.14 H2-s=-0.07 H3-s=-0.07 O1-s=-0.05 H3-p=0.02 H2-p=0.02
 Alpha vir 11 OE=1.004 is O1-p=1.01
 Alpha vir 12 OE=1.108 is O1-p=1.13 H2-s=-0.10 H3-s=-0.10 H3-p=0.04 H2-p=0.04
 Alpha vir 13 OE=1.316 is O1-s=1.16 H2-s=-0.13 H3-s=-0.13 H2-p=0.07 H3-p=0.07 O1-p=-0.03
 Alpha vir 14 OE=1.480 is H3-p=0.39 H2-p=0.39 O1-s=0.20 O1-d=0.06 H3-s=-0.03 H2-s=-0.03 O1-p=0.02
 Alpha vir 15 OE=1.515 is H3-p=0.47 H2-p=0.47 O1-d=0.05
 Alpha vir 16 OE=1.710 is H2-p=0.46 H3-p=0.46 O1-d=0.06 O1-p=0.02
 Alpha vir 17 OE=1.917 is H2-p=0.47 H3-p=0.47 H2-s=0.03 H3-s=0.03
 Alpha vir 18 OE=2.229 is H3-p=0.21 H2-p=0.21 H3-s=0.19 H2-s=0.19 O1-d=0.13 O1-p=0.08
 Alpha vir 19 OE=2.375 is H2-s=0.31 H3-s=0.31 O1-d=0.14 H2-p=0.09 H3-p=0.09 O1-p=0.04 O1-s=0.02
 Alpha vir 20 OE=2.595 is H2-p=0.36 H3-p=0.36 H2-s=0.23 H3-s=0.23 O1-s=-0.10 O1-p=-0.07
 Alpha vir 21 OE=2.785 is H2-p=0.29 H3-p=0.29 H3-s=0.28 H2-s=0.28 O1-p=-0.10 O1-d=-0.03
 Alpha vir 22 OE=3.490 is O1-d=0.94 H2-p=0.03 H3-p=0.03
 Alpha vir 23 OE=3.537 is O1-d=0.95 H2-p=0.03 H3-p=0.03
 Alpha vir 24 OE=3.705 is O1-d=0.93 H3-p=0.04 H2-p=0.04
 Alpha vir 25 OE=3.996 is O1-d=0.82 H3-p=0.05 H2-p=0.05 O1-p=0.02 H3-s=0.02 H2-s=0.02
 Alpha vir 26 OE=4.253 is O1-d=0.78 O1-p=0.09 H2-s=0.04 H3-s=0.04 H2-p=0.03 H3-p=0.03
 Alpha vir 27 OE=5.324 is O1-p=1.00
 Alpha vir 28 OE=5.741 is O1-p=1.00 O1-d=0.05 H2-p=-0.02 H3-p=-0.02
 Alpha vir 29 OE=6.152 is O1-p=0.96 O1-d=0.11 H2-p=-0.04 H3-p=-0.04
 Alpha vir 30 OE=51.537 is O1-s=1.00
 
 Orbital energies and kinetic energies (alpha):
                                 1                 2
   1         (A1)--O         -20.547450         29.200948
   2         (A1)--O          -1.336232          2.603790
   3         (B2)--O          -0.698740          1.752952
   4         (A1)--O          -0.571456          2.161240
   5         (B1)--O          -0.499259          2.289240
   6         (A1)--V           0.148586          0.599557
   7         (B2)--V           0.215840          0.614398
   8         (B2)--V           0.559429          1.279647
   9         (A1)--V           0.609132          1.461016
  10         (A1)--V           1.000273          2.428294
  11         (B1)--V           1.003850          2.513280
  12         (B2)--V           1.108368          2.515574
  13         (A1)--V           1.316487          3.409250
  14         (A1)--V           1.479627          2.181932
  15         (A2)--V           1.515103          2.011029
  16         (B1)--V           1.709551          2.194590
  17         (B2)--V           1.917398          2.349945
  18         (B2)--V           2.228712          3.670231
  19         (A1)--V           2.374908          4.094499
  20         (A1)--V           2.595345          3.813753
  21         (B2)--V           2.784905          3.595130
  22         (B1)--V           3.489771          4.762609
  23         (A2)--V           3.537035          4.832101
  24         (A1)--V           3.705365          5.013205
  25         (A1)--V           3.996358          5.841435
  26         (B2)--V           4.253203          6.527235
  27         (B1)--V           5.324180         11.785514
  28         (A1)--V           5.741231         11.868950
  29         (B2)--V           6.152217         12.003377
  30         (A1)--V          51.536668        123.837428
 Total kinetic energy from orbitals= 7.601633778215D+01

 Test job not archived.
 1\1\GINC-GAMBA\SP\RHF\Gen\H2O1\IRIKURA\17-May-2017\0\\# HF/GEN gfinput
  geom=check IOP(6/81=3) scf=xqc pop(all,thresh=1)\\BEB step 2: Hartree
 -Fock B and U for h2o\\0,1\O,0,0.,0.,-0.1405046397\H,0,0.,-0.761559800
 4,0.4580938899\H,0,0.,0.7615598004,0.4580938899\\Version=ES64L-G09RevD
 .01\State=1-A1\HF=-76.0454064\RMSD=9.022e-10\Dipole=0.,0.,0.8609927\Qu
 adrupole=-1.0558046,1.2067231,-0.1509185,0.,0.,0.\PG=C02V [C2(O1),SGV(
 H2)]\\@


 READER, WHETHER YOU BE DILETTANTE OR PROFESSOR ... SHOW YOURSELF TO BE
 MORE HUMAN THAN CRITICAL, AND THEN YOUR PLEASURE WILL INCREASE.
                                           -- DOMENICO SCARLATTI (1738)
 Job cpu time:       0 days  0 hours  0 minutes 12.0 seconds.
 File lengths (MBytes):  RWF=      5 Int=      0 D2E=      0 Chk=      1 Scr=      1
 Normal termination of Gaussian 09 at Wed May 17 13:36:12 2017.
