 Entering Gaussian System, Link 0=g09
 Initial command:
 /usr/local/apps/g09/l1.exe "/wrk/irikura/Gau-9782.inp" -scrdir="/wrk/irikura/"
 Entering Link 1 = /usr/local/apps/g09/l1.exe PID=      9784.
  
 Copyright (c) 1988,1990,1992,1993,1995,1998,2003,2009,2013,
            Gaussian, Inc.  All Rights Reserved.
  
 This is part of the Gaussian(R) 09 program.  It is based on
 the Gaussian(R) 03 system (copyright 2003, Gaussian, Inc.),
 the Gaussian(R) 98 system (copyright 1998, Gaussian, Inc.),
 the Gaussian(R) 94 system (copyright 1995, Gaussian, Inc.),
 the Gaussian 92(TM) system (copyright 1992, Gaussian, Inc.),
 the Gaussian 90(TM) system (copyright 1990, Gaussian, Inc.),
 the Gaussian 88(TM) system (copyright 1988, Gaussian, Inc.),
 the Gaussian 86(TM) system (copyright 1986, Carnegie Mellon
 University), and the Gaussian 82(TM) system (copyright 1983,
 Carnegie Mellon University). Gaussian is a federally registered
 trademark of Gaussian, Inc.
  
 This software contains proprietary and confidential information,
 including trade secrets, belonging to Gaussian, Inc.
  
 This software is provided under written license and may be
 used, copied, transmitted, or stored only in accord with that
 written license.
  
 The following legend is applicable only to US Government
 contracts under FAR:
  
                    RESTRICTED RIGHTS LEGEND
  
 Use, reproduction and disclosure by the US Government is
 subject to restrictions as set forth in subparagraphs (a)
 and (c) of the Commercial Computer Software - Restricted
 Rights clause in FAR 52.227-19.
  
 Gaussian, Inc.
 340 Quinnipiac St., Bldg. 40, Wallingford CT 06492
  
  
 ---------------------------------------------------------------
 Warning -- This program may not be used in any manner that
 competes with the business of Gaussian, Inc. or will provide
 assistance to any competitor of Gaussian, Inc.  The licensee
 of this program is prohibited from giving any competitor of
 Gaussian, Inc. access to this program.  By using this program,
 the user acknowledges that Gaussian, Inc. is engaged in the
 business of creating and licensing software in the field of
 computational chemistry and represents and warrants to the
 licensee that it is not a competitor of Gaussian, Inc. and that
 it will not use this program in any manner prohibited above.
 ---------------------------------------------------------------
  

 Cite this work as:
 Gaussian 09, Revision D.01,
 M. J. Frisch, G. W. Trucks, H. B. Schlegel, G. E. Scuseria, 
 M. A. Robb, J. R. Cheeseman, G. Scalmani, V. Barone, B. Mennucci, 
 G. A. Petersson, H. Nakatsuji, M. Caricato, X. Li, H. P. Hratchian, 
 A. F. Izmaylov, J. Bloino, G. Zheng, J. L. Sonnenberg, M. Hada, 
 M. Ehara, K. Toyota, R. Fukuda, J. Hasegawa, M. Ishida, T. Nakajima, 
 Y. Honda, O. Kitao, H. Nakai, T. Vreven, J. A. Montgomery, Jr., 
 J. E. Peralta, F. Ogliaro, M. Bearpark, J. J. Heyd, E. Brothers, 
 K. N. Kudin, V. N. Staroverov, T. Keith, R. Kobayashi, J. Normand, 
 K. Raghavachari, A. Rendell, J. C. Burant, S. S. Iyengar, J. Tomasi, 
 M. Cossi, N. Rega, J. M. Millam, M. Klene, J. E. Knox, J. B. Cross, 
 V. Bakken, C. Adamo, J. Jaramillo, R. Gomperts, R. E. Stratmann, 
 O. Yazyev, A. J. Austin, R. Cammi, C. Pomelli, J. W. Ochterski, 
 R. L. Martin, K. Morokuma, V. G. Zakrzewski, G. A. Voth, 
 P. Salvador, J. J. Dannenberg, S. Dapprich, A. D. Daniels, 
 O. Farkas, J. B. Foresman, J. V. Ortiz, J. Cioslowski, 
 and D. J. Fox, Gaussian, Inc., Wallingford CT, 2013.
 
 ******************************************
 Gaussian 09:  ES64L-G09RevD.01 24-Apr-2013
                17-May-2017 
 ******************************************
 %chk=thf3.chk
 %nprocs=8
 Will use up to    8 processors via shared memory.
 %mem=2000mw
 ----------------------------------------------------------------------
 # CCSD(T,maxcyc=100,window=(13,0))/GEN gfinput geom=check scf=xqc pseu
 do=read
 ----------------------------------------------------------------------
 1/29=2,38=1/1;
 2/12=2,40=1/2;
 3/5=7,11=9,14=-4,16=1,17=8,24=10,25=1,30=1/1,2,3;
 4//1;
 5/5=2,8=3,13=1,38=5/2,8;
 8/6=4,9=120000,10=91,37=13/1,4;
 9/5=7,6=100,14=2/13;
 6/7=2,8=2,9=2,10=2/1;
 99/5=1,9=1/99;
 ----------------------------------------------------------------------
 BEB step 10: low-spin CCSD(T) for dication of thf3; only 12 cores froz
 en
 ----------------------------------------------------------------------
 Structure from the checkpoint file:  "thf3.chk"
 Charge =  2 Multiplicity = 2
 Redundant internal coordinates found in file.
 Th,0,0.,0.,0.
 F,0,-1.810539525,1.0453154808,0.
 F,0,0.0000000011,-2.0906309636,0.
 F,0,1.8105395239,1.0453154828,0.
 Recover connectivity data from disk.
                          Input orientation:                          
 ---------------------------------------------------------------------
 Center     Atomic      Atomic             Coordinates (Angstroms)
 Number     Number       Type             X           Y           Z
 ---------------------------------------------------------------------
      1         90           0        0.000000    0.000000    0.000000
      2          9           0       -1.810540    1.045315    0.000000
      3          9           0        0.000000   -2.090631    0.000000
      4          9           0        1.810540    1.045315    0.000000
 ---------------------------------------------------------------------
                    Distance matrix (angstroms):
                    1          2          3          4
     1  Th   0.000000
     2  F    2.090631   0.000000
     3  F    2.090631   3.621079   0.000000
     4  F    2.090631   3.621079   3.621079   0.000000
 Stoichiometry    F3Th(2+,2)
 Framework group  D3H[O(Th),3C2(F)]
 Deg. of freedom     1
 Full point group                 D3H     NOp  12
 Largest Abelian subgroup         C2V     NOp   4
 Largest concise Abelian subgroup C2      NOp   2
                         Standard orientation:                         
 ---------------------------------------------------------------------
 Center     Atomic      Atomic             Coordinates (Angstroms)
 Number     Number       Type             X           Y           Z
 ---------------------------------------------------------------------
      1         90           0        0.000000    0.000000    0.000000
      2          9           0        0.000000    2.090631    0.000000
      3          9           0        1.810540   -1.045315    0.000000
      4          9           0       -1.810540   -1.045315    0.000000
 ---------------------------------------------------------------------
 Rotational constants (GHZ):      4.0574584      4.0574584      2.0287292
 General basis read from cards:  (5D, 7F)
 ======================================================================================================
                                       Pseudopotential Parameters
 ======================================================================================================
  Center     Atomic      Valence      Angular      Power
  Number     Number     Electrons     Momentum     of R      Exponent        Coefficient   SO-Coeffient
 ======================================================================================================
    1         90           30
                                      H and up 
                                                     2        1.0000000        0.00000000    0.00000000
                                      S - H
                                                     2       14.7764241      455.05596763    0.00000000
                                      P - H
                                                     2        9.0831843      177.69179070    0.00000000
                                      D - H
                                                     2        9.6538577      197.23270511    0.00000000
                                      F - H
                                                     2        7.3807659       82.90872723    0.00000000
                                      G - H
                                                     2       11.6090246      -55.12641906    0.00000000
    2          9
                                   No pseudopotential on this center.
    3          9
                                   No pseudopotential on this center.
    4          9
                                   No pseudopotential on this center.
 ======================================================================================================
 AO basis set in the form of general basis input (Overlap normalization):
      1 0
 S   3 1.00       0.000000000000
      0.1205938500D+05  0.2742218495D-01
      0.1804868300D+04  0.2217681316D+00
      0.3436386600D+03  0.8375719669D+00
 S   3 1.00       0.000000000000
      0.5464494600D+02  0.7498595197D-01
      0.3190814800D+02 -0.4000608909D+00
      0.1861419300D+02  0.1314387180D+01
 S   1 1.00       0.000000000000
      0.9369705800D+02  0.1000000000D+01
 S   1 1.00       0.000000000000
      0.9396094000D+01  0.1000000000D+01
 S   1 1.00       0.000000000000
      0.2574505000D+01  0.1000000000D+01
 S   1 1.00       0.000000000000
      0.1385010000D+01  0.1000000000D+01
 S   1 1.00       0.000000000000
      0.5516260000D+00  0.1000000000D+01
 S   1 1.00       0.000000000000
      0.2538890000D+00  0.1000000000D+01
 S   1 1.00       0.000000000000
      0.5569700000D-01  0.1000000000D+01
 S   1 1.00       0.000000000000
      0.2289600000D-01  0.1000000000D+01
 P   5 1.00       0.000000000000
      0.2892296100D+04  0.4518072499D-02
      0.6414299000D+03  0.4193698064D-01
      0.2202668600D+03  0.1550046411D+00
      0.8040929600D+02  0.6090130033D+00
      0.2395981000D+02  0.3542632232D+00
 P   1 1.00       0.000000000000
      0.1399628000D+02  0.1000000000D+01
 P   1 1.00       0.000000000000
      0.8167599000D+01  0.1000000000D+01
 P   1 1.00       0.000000000000
      0.3549431000D+01  0.1000000000D+01
 P   1 1.00       0.000000000000
      0.1758697000D+01  0.1000000000D+01
 P   1 1.00       0.000000000000
      0.6480260000D+00  0.1000000000D+01
 P   1 1.00       0.000000000000
      0.2835080000D+00  0.1000000000D+01
 P   1 1.00       0.000000000000
      0.9927100000D-01  0.1000000000D+01
 P   1 1.00       0.000000000000
      0.2984500000D-01  0.1000000000D+01
 D   6 1.00       0.000000000000
      0.4484346700D+03 -0.1778325800D-04
      0.1508962600D+03  0.5563619289D-03
      0.5970916100D+02 -0.2870725935D-03
      0.1702865600D+02  0.7208316608D-01
      0.9919828000D+01 -0.3293103717D+00
      0.3281265000D+01  0.1151897835D+01
 D   1 1.00       0.000000000000
      0.1592746000D+01  0.1000000000D+01
 D   1 1.00       0.000000000000
      0.7041920000D+00  0.1000000000D+01
 D   1 1.00       0.000000000000
      0.2547970000D+00  0.1000000000D+01
 D   1 1.00       0.000000000000
      0.8277600000D-01  0.1000000000D+01
 F   5 1.00       0.000000000000
      0.8457093100D+02  0.3297765949D-03
      0.2447237600D+02  0.3591834250D-02
      0.1126177100D+02 -0.2161402014D-02
      0.3447494000D+01  0.3547534961D+00
      0.1539153000D+01  0.7192889642D+00
 F   1 1.00       0.000000000000
      0.6468680000D+00  0.1000000000D+01
 F   1 1.00       0.000000000000
      0.2484750000D+00  0.1000000000D+01
 F   1 1.00       0.000000000000
      0.8124700000D-01  0.1000000000D+01
 G   4 1.00       0.000000000000
      0.8457093100D+02  0.5544542694D-02
      0.2447237600D+02  0.3807411292D-03
      0.1126177100D+02  0.3389071977D+00
      0.3447494000D+01  0.8141197196D+00
 G   1 1.00       0.000000000000
      0.1539153000D+01  0.1000000000D+01
 G   1 1.00       0.000000000000
      0.6468680000D+00  0.1000000000D+01
 ****
      2 0
 S   7 1.00       0.000000000000
      0.1950000000D+05  0.5190024441D-03
      0.2923000000D+04  0.4015781354D-02
      0.6645000000D+03  0.2067746110D-01
      0.1875000000D+03  0.8086901703D-01
      0.6062000000D+02  0.2358075463D+00
      0.2142000000D+02  0.4425823060D+00
      0.7950000000D+01  0.3569628672D+00
 S   6 1.00       0.000000000000
      0.6645000000D+03 -0.3735980873D-04
      0.1875000000D+03 -0.1277472297D-02
      0.6062000000D+02 -0.1082201399D-01
      0.2142000000D+02 -0.7004820894D-01
      0.7950000000D+01 -0.1697466078D+00
      0.8815000000D+00  0.1073026608D+01
 S   1 1.00       0.000000000000
      0.2257000000D+01  0.1000000000D+01
 S   1 1.00       0.000000000000
      0.3041000000D+00  0.1000000000D+01
 P   3 1.00       0.000000000000
      0.4388000000D+02  0.4190462069D-01
      0.9926000000D+01  0.2626978417D+00
      0.2930000000D+01  0.7977593735D+00
 P   1 1.00       0.000000000000
      0.9132000000D+00  0.1000000000D+01
 P   1 1.00       0.000000000000
      0.2672000000D+00  0.1000000000D+01
 D   1 1.00       0.000000000000
      0.3107000000D+01  0.1000000000D+01
 D   1 1.00       0.000000000000
      0.8550000000D+00  0.1000000000D+01
 F   1 1.00       0.000000000000
      0.1917000000D+01  0.1000000000D+01
 ****
      3 0
 S   7 1.00       0.000000000000
      0.1950000000D+05  0.5190024441D-03
      0.2923000000D+04  0.4015781354D-02
      0.6645000000D+03  0.2067746110D-01
      0.1875000000D+03  0.8086901703D-01
      0.6062000000D+02  0.2358075463D+00
      0.2142000000D+02  0.4425823060D+00
      0.7950000000D+01  0.3569628672D+00
 S   6 1.00       0.000000000000
      0.6645000000D+03 -0.3735980873D-04
      0.1875000000D+03 -0.1277472297D-02
      0.6062000000D+02 -0.1082201399D-01
      0.2142000000D+02 -0.7004820894D-01
      0.7950000000D+01 -0.1697466078D+00
      0.8815000000D+00  0.1073026608D+01
 S   1 1.00       0.000000000000
      0.2257000000D+01  0.1000000000D+01
 S   1 1.00       0.000000000000
      0.3041000000D+00  0.1000000000D+01
 P   3 1.00       0.000000000000
      0.4388000000D+02  0.4190462069D-01
      0.9926000000D+01  0.2626978417D+00
      0.2930000000D+01  0.7977593735D+00
 P   1 1.00       0.000000000000
      0.9132000000D+00  0.1000000000D+01
 P   1 1.00       0.000000000000
      0.2672000000D+00  0.1000000000D+01
 D   1 1.00       0.000000000000
      0.3107000000D+01  0.1000000000D+01
 D   1 1.00       0.000000000000
      0.8550000000D+00  0.1000000000D+01
 F   1 1.00       0.000000000000
      0.1917000000D+01  0.1000000000D+01
 ****
      4 0
 S   7 1.00       0.000000000000
      0.1950000000D+05  0.5190024441D-03
      0.2923000000D+04  0.4015781354D-02
      0.6645000000D+03  0.2067746110D-01
      0.1875000000D+03  0.8086901703D-01
      0.6062000000D+02  0.2358075463D+00
      0.2142000000D+02  0.4425823060D+00
      0.7950000000D+01  0.3569628672D+00
 S   6 1.00       0.000000000000
      0.6645000000D+03 -0.3735980873D-04
      0.1875000000D+03 -0.1277472297D-02
      0.6062000000D+02 -0.1082201399D-01
      0.2142000000D+02 -0.7004820894D-01
      0.7950000000D+01 -0.1697466078D+00
      0.8815000000D+00  0.1073026608D+01
 S   1 1.00       0.000000000000
      0.2257000000D+01  0.1000000000D+01
 S   1 1.00       0.000000000000
      0.3041000000D+00  0.1000000000D+01
 P   3 1.00       0.000000000000
      0.4388000000D+02  0.4190462069D-01
      0.9926000000D+01  0.2626978417D+00
      0.2930000000D+01  0.7977593735D+00
 P   1 1.00       0.000000000000
      0.9132000000D+00  0.1000000000D+01
 P   1 1.00       0.000000000000
      0.2672000000D+00  0.1000000000D+01
 D   1 1.00       0.000000000000
      0.3107000000D+01  0.1000000000D+01
 D   1 1.00       0.000000000000
      0.8550000000D+00  0.1000000000D+01
 F   1 1.00       0.000000000000
      0.1917000000D+01  0.1000000000D+01
 ****

 There are   104 symmetry adapted cartesian basis functions of A1  symmetry.
 There are    32 symmetry adapted cartesian basis functions of A2  symmetry.
 There are    67 symmetry adapted cartesian basis functions of B1  symmetry.
 There are    54 symmetry adapted cartesian basis functions of B2  symmetry.
 There are    79 symmetry adapted basis functions of A1  symmetry.
 There are    28 symmetry adapted basis functions of A2  symmetry.
 There are    55 symmetry adapted basis functions of B1  symmetry.
 There are    45 symmetry adapted basis functions of B2  symmetry.
   207 basis functions,   439 primitive gaussians,   257 cartesian basis functions
    28 alpha electrons       27 beta electrons
       nuclear repulsion energy       240.5374522987 Hartrees.
 NAtoms=    4 NActive=    4 NUniq=    2 SFac= 4.00D+00 NAtFMM=   60 NAOKFM=F Big=F
 Integral buffers will be    131072 words long.
 Raffenetti 2 integral format.
 Two-electron integral symmetry is turned on.
 One-electron integrals computed using PRISM.
  12 Symmetry operations used in ECPInt.
 ECPInt:  NShTT=    1891 NPrTT=    7424 LenC2=    1835 LenP2D=    5402.
 LDataN:  DoStor=T MaxTD1= 9 Len=  602
 NBasis=   207 RedAO= T EigKep=  3.68D-03  NBF=    79    28    55    45
 NBsUse=   207 1.00D-06 EigRej= -1.00D+00 NBFU=    79    28    55    45
 ExpMin= 2.29D-02 ExpMax= 1.95D+04 ExpMxC= 1.21D+04 IAcc=3 IRadAn=         5 AccDes= 0.00D+00
 Harris functional with IExCor=  205 and IRadAn=       5 diagonalized for initial guess.
 HarFok:  IExCor=  205 AccDes= 0.00D+00 IRadAn=         5 IDoV= 1 UseB2=F ITyADJ=14
 ICtDFT=  3500011 ScaDFX=  1.000000  1.000000  1.000000  1.000000
 Defaulting to unpruned grid for atomic number  90.
 Defaulting to unpruned grid for atomic number  90.
 Defaulting to unpruned grid for atomic number  90.
 Defaulting to unpruned grid for atomic number  90.
 Defaulting to unpruned grid for atomic number  90.
 Defaulting to unpruned grid for atomic number  90.
 Defaulting to unpruned grid for atomic number  90.
 Defaulting to unpruned grid for atomic number  90.
 FoFCou: FMM=F IPFlag=           0 FMFlag=      100000 FMFlg1=           0
         NFxFlg=           0 DoJE=T BraDBF=F KetDBF=T FulRan=T
         wScrn=  0.000000 ICntrl=     500 IOpCl=  0 I1Cent=   200000004 NGrid=           0
         NMat0=    1 NMatS0=      1 NMatT0=    0 NMatD0=    1 NMtDS0=    0 NMtDT0=    0
 Petite list used in FoFCou.
 Initial guess orbital symmetries:
 Alpha Orbitals:
       Occupied  (E') (E') (A1') (A1') (E') (E') (A2") (E') (E')
                 (A1') (E") (E") (A1') (E') (E') (A1') (A2") (E')
                 (E') (A1') (E') (E') (E") (E") (A2') (A2") (E')
                 (E')
       Virtual   (A1') (A1') (E") (E") (E') (E') (A2") (A2') (E")
                 (E") (E') (E') (A2") (A1') (E') (E') (A1') (A2")
                 (E') (E') (E") (E") (A2") (E") (E") (A2') (A1')
                 (E') (E') (E') (E') (A1') (A1') (E') (E') (A2')
                 (E") (E") (A2") (E') (E') (A2") (E') (E') (E")
                 (E") (A1') (A1') (A2') (E') (E') (A2") (E') (E')
                 (E") (E") (A1') (A2") (E') (E') (A1") (E') (E')
                 (A1') (E") (E") (A1') (E') (E') (E') (E') (E")
                 (E") (A1") (A1') (A2") (E") (E") (E') (E') (A2')
                 (A1') (E') (E') (A2") (E") (E") (A2') (E') (E')
                 (A1') (E') (E') (A1') (A1") (E") (E") (E') (E')
                 (A2") (E') (E') (A2") (E") (E") (A2') (A1') (E')
                 (E') (A1') (A1") (E') (E') (E") (E") (A2") (A1')
                 (A2') (E") (E") (E') (E') (A2") (A2') (E') (E')
                 (E") (E") (A1') (E') (E') (A2") (E') (E') (A1")
                 (E') (E') (E") (E") (A1') (E') (E') (E") (E")
                 (A2") (A2') (A1') (E') (E') (E") (E") (A1') (E')
                 (E') (A1") (E') (E') (E") (E") (A2") (A1') (E')
                 (E') (A1') (E') (E') (A1') (A2") (E') (E') (A1')
                 (A2") (E') (E') (A2") (E') (E') (A1') (A1')
 Beta  Orbitals:
       Occupied  (E') (E') (A1') (A1') (E') (E') (A2") (E') (E')
                 (A1') (E") (E") (A1') (E') (E') (A1') (A2") (E')
                 (E') (A1') (E') (E') (E") (E") (A2') (A2") (E')
       Virtual   (E') (A1') (A1') (E") (E") (E') (E') (A2") (A2')
                 (E") (E") (E') (E') (A2") (A1') (E') (E') (A1')
                 (A2") (E') (E') (E") (E") (A2") (E") (E") (A2')
                 (A1') (E') (E') (E') (E') (A1') (A1') (E') (E')
                 (A2') (E") (E") (A2") (E') (E') (A2") (E') (E')
                 (E") (E") (A1') (A1') (A2') (E') (E') (A2") (E')
                 (E') (E") (E") (A1') (A2") (E') (E') (A1") (E')
                 (E') (A1') (E") (E") (A1') (E') (E') (E') (E')
                 (E") (E") (A1") (A1') (A2") (E") (E") (E') (E')
                 (A2') (A1') (E') (E') (A2") (E") (E") (A2') (E')
                 (E') (A1') (E') (E') (A1') (A1") (E") (E") (E')
                 (E') (A2") (E') (E') (A2") (E") (E") (A2') (A1')
                 (E') (E') (A1') (A1") (E') (E') (E") (E") (A2")
                 (A1') (A2') (E") (E") (E') (E') (A2") (A2') (E')
                 (E') (E") (E") (A1') (E') (E') (A2") (E') (E')
                 (A1") (E') (E') (E") (E") (A1') (E') (E') (E")
                 (E") (A2") (A2') (A1') (E') (E') (E") (E") (A1')
                 (E') (E') (A1") (E') (E') (E") (E") (A2") (A1')
                 (E') (E') (A1') (E') (E') (A1') (A2") (E') (E')
                 (A1') (A2") (E') (E') (A2") (E') (E') (A1') (A1')
 Initial guess <Sx>= 0.0000 <Sy>= 0.0000 <Sz>= 0.5000 <S**2>= 0.7500 S= 0.5000
 Keep R1 and R2 ints in memory in symmetry-blocked form, NReq=290534771.
 Requested convergence on RMS density matrix=1.00D-08 within  64 cycles.
 Requested convergence on MAX density matrix=1.00D-06.
 Requested convergence on             energy=1.00D-06.
 No special actions if energy rises.
 Density matrix breaks symmetry, PCut= 1.00D-04
 Density has only Abelian symmetry.
 Density matrix breaks symmetry, PCut= 1.00D-07
 Density has only Abelian symmetry.
 Density matrix breaks symmetry, PCut= 1.00D-07
 Density has only Abelian symmetry.
 Density matrix breaks symmetry, PCut= 1.00D-07
 Density has only Abelian symmetry.
 Density matrix breaks symmetry, PCut= 1.00D-07
 Density has only Abelian symmetry.
 Density matrix breaks symmetry, PCut= 1.00D-07
 Density has only Abelian symmetry.
 Density matrix breaks symmetry, PCut= 1.00D-07
 Density has only Abelian symmetry.
 Density matrix breaks symmetry, PCut= 1.00D-07
 Density has only Abelian symmetry.
 Density matrix breaks symmetry, PCut= 1.00D-07
 Density has only Abelian symmetry.
 Rare condition: small coef for last iteration:  0.000D+00
 Density matrix breaks symmetry, PCut= 1.00D-07
 Density has only Abelian symmetry.
 Rare condition: small coef for last iteration:  0.000D+00
 Density matrix breaks symmetry, PCut= 1.00D-07
 Density has only Abelian symmetry.
 Density matrix breaks symmetry, PCut= 1.00D-07
 Density has only Abelian symmetry.
 Density matrix breaks symmetry, PCut= 1.00D-07
 Density has only Abelian symmetry.
 Density matrix breaks symmetry, PCut= 1.00D-07
 Density has only Abelian symmetry.
 Density matrix breaks symmetry, PCut= 1.00D-07
 Density has only Abelian symmetry.
 Density matrix breaks symmetry, PCut= 1.00D-07
 Density has only Abelian symmetry.
 Density matrix breaks symmetry, PCut= 1.00D-07
 Density has only Abelian symmetry.
 Density matrix breaks symmetry, PCut= 1.00D-07
 Density has only Abelian symmetry.
 Density matrix breaks symmetry, PCut= 1.00D-07
 Density has only Abelian symmetry.
 Density matrix breaks symmetry, PCut= 1.00D-07
 Density has only Abelian symmetry.
 SCF Done:  E(UHF) =  -703.899446156     A.U. after   19 cycles
            NFock= 19  Conv=0.35D-08     -V/T= 2.6711
 <Sx>= 0.0000 <Sy>= 0.0000 <Sz>= 0.5000 <S**2>= 0.8681 S= 0.5574
 <L.S>= 0.000000000000E+00
 Annihilation of the first spin contaminant:
 S**2 before annihilation     0.8681,   after     0.7588
 QCSCF skips out because SCF is already converged.
 Range of M.O.s used for correlation:    13   207
 NBasis=   207 NAE=    28 NBE=    27 NFC=    12 NFV=     0
 NROrb=    195 NOA=    16 NOB=    15 NVA=   179 NVB=   180

 **** Warning!!: The largest alpha MO coefficient is  0.10990104D+02


 **** Warning!!: The largest beta MO coefficient is  0.10886365D+02

 Semi-Direct transformation.
 ModeAB=           4 MOrb=            16 LenV=    2095843788
 LASXX=     14181635 LTotXX=    14181635 LenRXX=    28710729
 LTotAB=    14529094 MaxLAS=    79357200 LenRXY=           0
 NonZer=    42892364 LenScr=    65103872 LnRSAI=    79357200
 LnScr1=   119775744 LExtra=           0 Total=    292947545
 MaxDsk=          -1 SrtSym=           T ITran=            4
 JobTyp=1 Pass  1:  I=   1 to  16.
 (rs|ai) integrals will be sorted in core.
 ModeAB=           4 MOrb=            15 LenV=    2095843788
 LASXX=     13330216 LTotXX=    13330216 LenRXX=    24815734
 LTotAB=    11485518 MaxLAS=    74397375 LenRXY=           0
 NonZer=    38145950 LenScr=    57984000 LnRSAI=    74397375
 LnScr1=   112361472 LExtra=           0 Total=    269558581
 MaxDsk=          -1 SrtSym=           T ITran=            4
 JobTyp=2 Pass  1:  I=   1 to  15.
 (rs|ai) integrals will be sorted in core.
 Spin components of T(2) and E(2):
     alpha-alpha T2 =       0.2824752381D-01 E2=     -0.1350587329D+00
     alpha-beta  T2 =       0.1809907999D+00 E2=     -0.7681774132D+00
     beta-beta   T2 =       0.5393918976D-01 E2=     -0.1605260134D+00
 ANorm=    0.1123911702D+01
 E2 =    -0.1063762159D+01 EUMP2 =    -0.70496320831543D+03
 (S**2,0)=  0.86809D+00           (S**2,1)=  0.80518D+00
 E(PUHF)=      -0.70391769156D+03        E(PMP2)=      -0.70497680096D+03
 Keep R2 and R3 ints in memory in symmetry-blocked form, NReq=290328242.
 Iterations= 100 Convergence= 0.100D-06
 Iteration Nr.   1
 **********************
 DD1Dir will call FoFMem   1 times, MxPair=       706
 NAB=   240 NAA=   120 NBB=   105.
 E(PMP3)=      -0.70494783241D+03
 MP4(R+Q)=  0.25060374D-01
 E3=        0.23653932D-01        EUMP3=      -0.70493955438D+03
 E4(DQ)=   -0.99912761D-03        UMP4(DQ)=   -0.70494055351D+03
 E4(SDQ)=  -0.27498863D-01        UMP4(SDQ)=  -0.70496705325D+03
 DE(Corr)=  -1.0144105     E(Corr)=     -704.91385666    
 NORM(A)=   0.11163449D+01
 Iteration Nr.   2
 **********************
 DD1Dir will call FoFMem   1 times, MxPair=       706
 NAB=   240 NAA=   120 NBB=   105.
 DE(Corr)=  -1.0613068     E(CORR)=     -704.96075295     Delta=-4.69D-02
 NORM(A)=   0.11313945D+01
 Iteration Nr.   3
 **********************
 DD1Dir will call FoFMem   1 times, MxPair=       706
 NAB=   240 NAA=   120 NBB=   105.
 DE(Corr)=  -1.0540930     E(CORR)=     -704.95353914     Delta= 7.21D-03
 NORM(A)=   0.11401474D+01
 Iteration Nr.   4
 **********************
 DD1Dir will call FoFMem   1 times, MxPair=       706
 NAB=   240 NAA=   120 NBB=   105.
 DE(Corr)=  -1.0601311     E(CORR)=     -704.95957725     Delta=-6.04D-03
 NORM(A)=   0.11440516D+01
 Iteration Nr.   5
 **********************
 DD1Dir will call FoFMem   1 times, MxPair=       706
 NAB=   240 NAA=   120 NBB=   105.
 DE(Corr)=  -1.0611677     E(CORR)=     -704.96061385     Delta=-1.04D-03
 NORM(A)=   0.11454543D+01
 Iteration Nr.   6
 **********************
 DD1Dir will call FoFMem   1 times, MxPair=       706
 NAB=   240 NAA=   120 NBB=   105.
 DE(Corr)=  -1.0612896     E(CORR)=     -704.96073575     Delta=-1.22D-04
 NORM(A)=   0.11457087D+01
 Iteration Nr.   7
 **********************
 DD1Dir will call FoFMem   1 times, MxPair=       706
 NAB=   240 NAA=   120 NBB=   105.
 DE(Corr)=  -1.0613340     E(CORR)=     -704.96078018     Delta=-4.44D-05
 NORM(A)=   0.11458132D+01
 Iteration Nr.   8
 **********************
 DD1Dir will call FoFMem   1 times, MxPair=       706
 NAB=   240 NAA=   120 NBB=   105.
 DE(Corr)=  -1.0613661     E(CORR)=     -704.96081226     Delta=-3.21D-05
 NORM(A)=   0.11459309D+01
 Iteration Nr.   9
 **********************
 DD1Dir will call FoFMem   1 times, MxPair=       706
 NAB=   240 NAA=   120 NBB=   105.
 DE(Corr)=  -1.0613277     E(CORR)=     -704.96077382     Delta= 3.84D-05
 NORM(A)=   0.11460347D+01
 Iteration Nr.  10
 **********************
 DD1Dir will call FoFMem   1 times, MxPair=       706
 NAB=   240 NAA=   120 NBB=   105.
 DE(Corr)=  -1.0613741     E(CORR)=     -704.96082030     Delta=-4.65D-05
 NORM(A)=   0.11461065D+01
 Iteration Nr.  11
 **********************
 DD1Dir will call FoFMem   1 times, MxPair=       706
 NAB=   240 NAA=   120 NBB=   105.
 DE(Corr)=  -1.0613559     E(CORR)=     -704.96080209     Delta= 1.82D-05
 NORM(A)=   0.11461679D+01
 Iteration Nr.  12
 **********************
 DD1Dir will call FoFMem   1 times, MxPair=       706
 NAB=   240 NAA=   120 NBB=   105.
 DE(Corr)=  -1.0613828     E(CORR)=     -704.96082894     Delta=-2.69D-05
 NORM(A)=   0.11462017D+01
 Iteration Nr.  13
 **********************
 DD1Dir will call FoFMem   1 times, MxPair=       706
 NAB=   240 NAA=   120 NBB=   105.
 DE(Corr)=  -1.0613788     E(CORR)=     -704.96082493     Delta= 4.02D-06
 NORM(A)=   0.11462221D+01
 Iteration Nr.  14
 **********************
 DD1Dir will call FoFMem   1 times, MxPair=       706
 NAB=   240 NAA=   120 NBB=   105.
 DE(Corr)=  -1.0613862     E(CORR)=     -704.96083240     Delta=-7.47D-06
 NORM(A)=   0.11462304D+01
 Iteration Nr.  15
 **********************
 DD1Dir will call FoFMem   1 times, MxPair=       706
 NAB=   240 NAA=   120 NBB=   105.
 DE(Corr)=  -1.0613870     E(CORR)=     -704.96083312     Delta=-7.23D-07
 NORM(A)=   0.11462365D+01
 Iteration Nr.  16
 **********************
 DD1Dir will call FoFMem   1 times, MxPair=       706
 NAB=   240 NAA=   120 NBB=   105.
 DE(Corr)=  -1.0613879     E(CORR)=     -704.96083407     Delta=-9.52D-07
 NORM(A)=   0.11462380D+01
 Iteration Nr.  17
 **********************
 DD1Dir will call FoFMem   1 times, MxPair=       706
 NAB=   240 NAA=   120 NBB=   105.
 DE(Corr)=  -1.0613888     E(CORR)=     -704.96083495     Delta=-8.72D-07
 NORM(A)=   0.11462390D+01
 Iteration Nr.  18
 **********************
 DD1Dir will call FoFMem   1 times, MxPair=       706
 NAB=   240 NAA=   120 NBB=   105.
 DE(Corr)=  -1.0613884     E(CORR)=     -704.96083457     Delta= 3.79D-07
 NORM(A)=   0.11462378D+01
 Iteration Nr.  19
 **********************
 DD1Dir will call FoFMem   1 times, MxPair=       706
 NAB=   240 NAA=   120 NBB=   105.
 DE(Corr)=  -1.0613878     E(CORR)=     -704.96083396     Delta= 6.08D-07
 NORM(A)=   0.11462376D+01
 Iteration Nr.  20
 **********************
 DD1Dir will call FoFMem   1 times, MxPair=       706
 NAB=   240 NAA=   120 NBB=   105.
 DE(Corr)=  -1.0613881     E(CORR)=     -704.96083426     Delta=-2.98D-07
 NORM(A)=   0.11462377D+01
 Iteration Nr.  21
 **********************
 DD1Dir will call FoFMem   1 times, MxPair=       706
 NAB=   240 NAA=   120 NBB=   105.
 DE(Corr)=  -1.0613874     E(CORR)=     -704.96083354     Delta= 7.17D-07
 NORM(A)=   0.11462385D+01
 Iteration Nr.  22
 **********************
 DD1Dir will call FoFMem   1 times, MxPair=       706
 NAB=   240 NAA=   120 NBB=   105.
 DE(Corr)=  -1.0613878     E(CORR)=     -704.96083399     Delta=-4.48D-07
 NORM(A)=   0.11462392D+01
 Iteration Nr.  23
 **********************
 DD1Dir will call FoFMem   1 times, MxPair=       706
 NAB=   240 NAA=   120 NBB=   105.
 DE(Corr)=  -1.0613878     E(CORR)=     -704.96083393     Delta= 6.00D-08
 NORM(A)=   0.11462401D+01
 Iteration Nr.  24
 **********************
 DD1Dir will call FoFMem   1 times, MxPair=       706
 NAB=   240 NAA=   120 NBB=   105.
 DE(Corr)=  -1.0613879     E(CORR)=     -704.96083405     Delta=-1.21D-07
 NORM(A)=   0.11462404D+01
 Iteration Nr.  25
 **********************
 DD1Dir will call FoFMem   1 times, MxPair=       706
 NAB=   240 NAA=   120 NBB=   105.
 DE(Corr)=  -1.0613880     E(CORR)=     -704.96083417     Delta=-1.25D-07
 NORM(A)=   0.11462407D+01
 Iteration Nr.  26
 **********************
 DD1Dir will call FoFMem   1 times, MxPair=       706
 NAB=   240 NAA=   120 NBB=   105.
 DE(Corr)=  -1.0613880     E(CORR)=     -704.96083418     Delta=-1.33D-09
 NORM(A)=   0.11462408D+01
 Largest amplitude= 4.56D-02
 Time for triples=     2358.33 seconds.
 T4(CCSD)= -0.55211145D-01
 T5(CCSD)=  0.63584467D-02
 CCSD(T)= -0.70500968687D+03

 S**2, projected HF & approx projected MPn energies after annihilation of
 unwanted spin states (see manual for definitions):

 spins       (S**2,0) (S**2,1)    PUHF        PMP2        PMP3        PMP4
 annihilated
 s+1         0.74475  0.75078 -703.917692 -704.976801 -704.947832
 s+1,s+2     0.75003  0.74997 -703.917022 -704.976190 -704.947294
 s+1 to s+3  0.75000  0.75000 -703.917027 -704.976192 -704.947294
 s+1 to s+4  0.75000  0.75000 -703.917027 -704.976193 -704.947294
 s+1 to s+5  0.75000  0.75000 -703.917027
 s+1 to s+6  0.75000  0.75000 -703.917027

 Discarding MO integrals.

 **********************************************************************

            Population analysis using the SCF density.

 **********************************************************************

 Orbital symmetries:
 Alpha Orbitals:
       Occupied  (?A) (?A) (?A) (A1') (A2") (E') (E') (E") (?A)
                 (E") (?A) (?A) (A1') (?A) (?A) (?A) (A2") (?B)
                 (?B) (?B) (?B) (?B) (?C) (?B) (?C) (?B) (?C) (?B)
       Virtual   (A1') (E") (E") (?B) (?B) (?B) (?D) (?D) (?D)
                 (?B) (?B) (?D) (?B) (?A) (?A) (?A) (A1') (?E)
                 (?B) (?B) (?E) (?E) (?E) (?E) (?E) (?B) (?B) (?B)
                 (?B) (?B) (?B) (?B) (?B) (?C) (?C) (?C) (?B) (?B)
                 (?B) (?B) (?B) (?C) (?B) (?B) (?C) (?C) (?B) (?B)
                 (?B) (A2") (E') (E') (?F) (?F) (?G) (?G) (?G)
                 (?F) (?F) (?F) (?G) (?G) (?G) (?F) (?F) (?F) (?F)
                 (?F) (?F) (?F) (?G) (?F) (?G) (?G) (?F) (?G) (?F)
                 (?G) (?G) (?F) (?F) (A1') (E') (E') (?C) (?C)
                 (?C) (?H) (?H) (?H) (?H) (?I) (?I) (?I) (?J) (?J)
                 (?J) (?I) (?I) (?J) (?I) (?I) (?C) (?C) (?C) (?I)
                 (?I) (?I) (?I) (?I) (?J) (?J) (?J) (?J) (?J) (?J)
                 (?J) (?J) (?J) (?J) (?J) (?J) (?J) (?J) (?J) (?J)
                 (?J) (?J) (?J) (?J) (?J) (?J) (?J) (?J) (?J) (?J)
                 (?J) (?J) (?J) (?J) (?J) (?J) (?J) (?J) (?J) (?J)
                 (?J) (?J) (?J) (E") (E") (A1') (E') (E') (?J)
                 (?J) (?A) (?A) (?J) (?J) (?A) (E') (E') (?A) (?A)
                 (?A) (A1') (A2") (E') (E') (A1') (A2") (E') (E')
                 (A2") (E') (E') (A1') (A1')
 Beta  Orbitals:
       Occupied  (?A) (?A) (?A) (A1') (A2") (E') (E') (?A) (?A)
                 (E") (?A) (E") (A1') (?B) (?B) (?B) (A2") (?B)
                 (?B) (?B) (?B) (?C) (?C) (?C) (?B) (?B) (?B)
       Virtual   (?B) (?B) (?D) (?D) (?B) (?B) (?D) (?B) (?D) (?D)
                 (?B) (?D) (?B) (?B) (?B) (?B) (?B) (?B) (A2")
                 (?B) (?B) (?E) (?E) (?E) (?E) (?E) (?B) (?B) (?B)
                 (?B) (?B) (?B) (?B) (?B) (?C) (?C) (?C) (?B) (?B)
                 (?B) (?B) (?B) (?C) (?B) (?C) (?B) (?C) (?B) (?B)
                 (?B) (A2") (?B) (?B) (?B) (?B) (?F) (?F) (A2")
                 (?B) (?F) (?B) (?B) (?F) (?F) (?B) (?B) (?B) (?B)
                 (?B) (?B) (?B) (?B) (?G) (?G) (?G) (?B) (?G) (?G)
                 (?G) (?B) (?B) (?B) (A1') (E') (E') (?C) (?C)
                 (?C) (A2') (?A) (?A) (?A) (?H) (?H) (?I) (?H)
                 (?I) (?I) (?H) (?H) (?I) (?C) (?H) (?H) (?C) (?C)
                 (?H) (?H) (?H) (?H) (?H) (?J) (?J) (?J) (?J) (?J)
                 (?J) (?J) (?J) (?J) (?J) (?J) (?J) (?J) (?J) (?J)
                 (?J) (?J) (?J) (?J) (?J) (?J) (?J) (E') (E') (?G)
                 (?J) (?J) (?G) (?G) (?J) (?J) (?J) (?G) (?G) (?G)
                 (?J) (?J) (?J) (?J) (E") (E") (A1') (E') (E')
                 (?I) (?I) (?I) (?A) (?A) (?I) (?A) (E') (E') (?A)
                 (?A) (?A) (A1') (A2") (E') (E') (A1') (A2") (E')
                 (E') (A2") (E') (E') (A1') (A1')
 Unable to determine electronic state:  an orbital has unidentified symmetry.
 Alpha  occ. eigenvalues --  -26.80523 -26.80523 -26.79423 -12.33933  -8.23520
 Alpha  occ. eigenvalues --   -8.23517  -8.23208  -4.43006  -4.42832  -4.42632
 Alpha  occ. eigenvalues --   -4.42549  -4.42529  -2.60050  -2.09842  -2.09280
 Alpha  occ. eigenvalues --   -2.06352  -1.59508  -1.58288  -1.57962  -1.20770
 Alpha  occ. eigenvalues --   -1.19892  -1.16472  -1.14518  -1.14244  -1.14001
 Alpha  occ. eigenvalues --   -1.13641  -1.12307  -1.09237
 Alpha virt. eigenvalues --   -0.41785  -0.36509  -0.36321  -0.33225  -0.30176
 Alpha virt. eigenvalues --   -0.29920  -0.29776  -0.27702  -0.27658  -0.26723
 Alpha virt. eigenvalues --   -0.26687  -0.26443  -0.25776  -0.20685  -0.18687
 Alpha virt. eigenvalues --   -0.18647  -0.11919  -0.08363  -0.05539  -0.05511
 Alpha virt. eigenvalues --   -0.03378  -0.03254  -0.02392  -0.01612  -0.01578
 Alpha virt. eigenvalues --   -0.01059   0.02235   0.02470   0.02489   0.03215
 Alpha virt. eigenvalues --    0.03407   0.05670   0.36745   0.57176   0.57678
 Alpha virt. eigenvalues --    0.57685   0.58616   0.58721   0.59728   0.64503
 Alpha virt. eigenvalues --    0.64699   0.72038   0.73113   0.74953   0.75638
 Alpha virt. eigenvalues --    0.76031   0.76317   0.83651   0.91827   1.05058
 Alpha virt. eigenvalues --    1.07783   1.08013   1.39396   1.39505   1.39768
 Alpha virt. eigenvalues --    1.40206   1.45574   1.46259   1.49160   1.49582
 Alpha virt. eigenvalues --    1.50739   1.51828   1.52127   1.52516   1.53093
 Alpha virt. eigenvalues --    1.53128   1.68392   1.75140   1.75341   1.81725
 Alpha virt. eigenvalues --    1.82062   1.82591   1.82779   1.84717   1.85886
 Alpha virt. eigenvalues --    2.16444   2.17270   2.17445   2.17677   2.17728
 Alpha virt. eigenvalues --    2.21187   2.44190   2.64047   2.64325   2.70824
 Alpha virt. eigenvalues --    2.72103   2.72115   2.83788   2.93494   2.93641
 Alpha virt. eigenvalues --    3.00787   4.30771   4.31596   4.31803   4.33101
 Alpha virt. eigenvalues --    4.37428   4.37741   4.39116   4.39320   4.40216
 Alpha virt. eigenvalues --    4.72118   4.73930   4.75354   4.77645   4.78312
 Alpha virt. eigenvalues --    4.85663   4.86884   5.05870   5.06710   5.61395
 Alpha virt. eigenvalues --    6.85698   6.87623   6.87737   6.87915   6.88082
 Alpha virt. eigenvalues --    6.89123   6.89607   6.89804   6.90242   6.90420
 Alpha virt. eigenvalues --    6.90549   6.90770   6.91421   6.91970   6.92297
 Alpha virt. eigenvalues --    6.92734   6.92735   6.93058   6.93881   6.94658
 Alpha virt. eigenvalues --    6.95014   7.02878   7.23892   7.24429   8.35199
 Alpha virt. eigenvalues --    8.35851   8.36285   8.37001   8.39744   8.40352
 Alpha virt. eigenvalues --    8.46127   8.46740   8.50642   8.51479   8.52719
 Alpha virt. eigenvalues --    8.63827   8.81398   8.82982   8.83306   9.15875
 Alpha virt. eigenvalues --    9.16273   9.30277   9.40189   9.40279  10.38589
 Alpha virt. eigenvalues --   10.43654  10.43863  10.43898  10.43916  10.46950
 Alpha virt. eigenvalues --   10.47031  10.63802  10.63899  11.11376  11.36014
 Alpha virt. eigenvalues --   11.36943  11.73457  28.09321  28.24757  28.24987
 Alpha virt. eigenvalues --   51.66493  58.09277  58.20018  58.20160 159.19121
 Alpha virt. eigenvalues --  159.32961 159.33048 194.40651 611.01339
  Beta  occ. eigenvalues --  -26.77915 -26.77914 -26.77024 -12.33901  -8.23589
  Beta  occ. eigenvalues --   -8.23387  -8.23386  -4.43148  -4.42986  -4.42760
  Beta  occ. eigenvalues --   -4.42744  -4.42727  -2.59744  -2.01910  -2.01584
  Beta  occ. eigenvalues --   -1.97683  -1.59461  -1.57342  -1.56058  -1.13836
  Beta  occ. eigenvalues --   -1.12016  -1.11765  -1.11326  -1.09519  -1.06760
  Beta  occ. eigenvalues --   -0.93287  -0.91256
  Beta virt. eigenvalues --   -0.65752  -0.41907  -0.36539  -0.36324  -0.33983
  Beta virt. eigenvalues --   -0.30009  -0.29880  -0.29568  -0.27774  -0.27697
  Beta virt. eigenvalues --   -0.26514  -0.26509  -0.25682  -0.24985  -0.20803
  Beta virt. eigenvalues --   -0.18390  -0.18206  -0.11270  -0.08399  -0.05470
  Beta virt. eigenvalues --   -0.05347  -0.03343  -0.03296  -0.02374  -0.01657
  Beta virt. eigenvalues --   -0.01530  -0.00732   0.02326   0.02625   0.02650
  Beta virt. eigenvalues --    0.04016   0.04631   0.06035   0.37559   0.56910
  Beta virt. eigenvalues --    0.57342   0.57444   0.58786   0.58904   0.59801
  Beta virt. eigenvalues --    0.67178   0.67280   0.72822   0.75809   0.76430
  Beta virt. eigenvalues --    0.76746   0.76793   0.78692   0.85563   0.94536
  Beta virt. eigenvalues --    1.05047   1.08274   1.08723   1.39575   1.40003
  Beta virt. eigenvalues --    1.40193   1.40833   1.45726   1.47650   1.50535
  Beta virt. eigenvalues --    1.50882   1.51147   1.51896   1.51929   1.52617
  Beta virt. eigenvalues --    1.52911   1.53015   1.69595   1.76670   1.76969
  Beta virt. eigenvalues --    1.84023   1.84048   1.84611   1.84756   1.85543
  Beta virt. eigenvalues --    1.87311   2.17879   2.18799   2.19683   2.19874
  Beta virt. eigenvalues --    2.19938   2.24336   2.45516   2.64488   2.64588
  Beta virt. eigenvalues --    2.70682   2.72015   2.72053   2.83576   2.95104
  Beta virt. eigenvalues --    2.95263   3.01605   4.31579   4.32996   4.32996
  Beta virt. eigenvalues --    4.33473   4.37506   4.37664   4.39312   4.39595
  Beta virt. eigenvalues --    4.40221   4.76872   4.77560   4.78183   4.79188
  Beta virt. eigenvalues --    4.79768   4.89207   4.91326   5.08711   5.10243
  Beta virt. eigenvalues --    5.62340   6.86906   6.90907   6.90986   6.91196
  Beta virt. eigenvalues --    6.91366   6.91821   6.91836   6.91922   6.91947
  Beta virt. eigenvalues --    6.92258   6.92583   6.93034   6.93106   6.93216
  Beta virt. eigenvalues --    6.93876   6.94177   6.94265   6.94473   6.96464
  Beta virt. eigenvalues --    6.96673   6.97317   7.03824   7.24859   7.24996
  Beta virt. eigenvalues --    8.39297   8.40712   8.40731   8.41226   8.41343
  Beta virt. eigenvalues --    8.42542   8.51561   8.52014   8.54349   8.54625
  Beta virt. eigenvalues --    8.56191   8.69332   8.86595   8.86803   8.88108
  Beta virt. eigenvalues --    9.16265   9.16287   9.30299   9.40437   9.40478
  Beta virt. eigenvalues --   10.38599  10.43733  10.43875  10.43927  10.43957
  Beta virt. eigenvalues --   10.47005  10.47113  10.64125  10.64152  11.13553
  Beta virt. eigenvalues --   11.38188  11.38587  11.73462  28.09328  28.24929
  Beta virt. eigenvalues --   28.24989  51.66556  58.09280  58.20072  58.20162
  Beta virt. eigenvalues --  159.19123 159.32981 159.33049 194.40665 611.01342
          Condensed to atoms (all electrons):
               1          2          3          4
     1  Th  26.819198   0.160677   0.157151   0.157151
     2  F    0.160677   9.089093   0.000251   0.000251
     3  F    0.157151   0.000251   9.070958  -0.000585
     4  F    0.157151   0.000251  -0.000585   9.070958
          Atomic-Atomic Spin Densities.
               1          2          3          4
     1  Th  -0.101197  -0.055963  -0.062332  -0.062332
     2  F   -0.055963   0.461182  -0.000109  -0.000109
     3  F   -0.062332  -0.000109   0.500185   0.000667
     4  F   -0.062332  -0.000109   0.000667   0.500185
 Mulliken charges and spin densities:
               1          2
     1  Th   2.705822  -0.281824
     2  F   -0.250271   0.405001
     3  F   -0.227775   0.438412
     4  F   -0.227775   0.438412
 Sum of Mulliken charges =   2.00000   1.00000
 Mulliken charges and spin densities with hydrogens summed into heavy atoms:
               1          2
     1  Th   2.705822  -0.281824
     2  F   -0.250271   0.405001
     3  F   -0.227775   0.438412
     4  F   -0.227775   0.438412
 Electronic spatial extent (au):  <R**2>=            515.0374
 Charge=              2.0000 electrons
 Dipole moment (field-independent basis, Debye):
    X=              0.0000    Y=              0.0179    Z=              0.0000  Tot=              0.0179
 Quadrupole moment (field-independent basis, Debye-Ang):
   XX=            -44.1095   YY=            -44.9293   ZZ=            -36.8784
   XY=              0.0000   XZ=              0.0000   YZ=              0.0000
 Traceless Quadrupole moment (field-independent basis, Debye-Ang):
   XX=             -2.1371   YY=             -2.9569   ZZ=              5.0940
   XY=              0.0000   XZ=              0.0000   YZ=              0.0000
 Octapole moment (field-independent basis, Debye-Ang**2):
  XXX=              0.0000  YYY=             -3.6063  ZZZ=              0.0000  XYY=              0.0000
  XXY=              5.1938  XXZ=              0.0000  XZZ=              0.0000  YZZ=              0.0124
  YYZ=              0.0000  XYZ=              0.0000
 Hexadecapole moment (field-independent basis, Debye-Ang**3):
 XXXX=           -221.9781 YYYY=           -226.1238 ZZZZ=            -24.4456 XXXY=              0.0000
 XXXZ=              0.0000 YYYX=              0.0000 YYYZ=              0.0000 ZZZX=              0.0000
 ZZZY=              0.0000 XXYY=            -78.0186 XXZZ=            -41.2985 YYZZ=            -41.4136
 XXYZ=              0.0000 YYXZ=              0.0000 ZZXY=              0.0000
 N-N= 2.405374522987D+02 E-N=-1.985190583565D+03  KE= 4.212126240753D+02
 Symmetry A1   KE= 2.344016854772D+02
 Symmetry A2   KE= 1.921118753456D+01
 Symmetry B1   KE= 1.282612860606D+02
 Symmetry B2   KE= 3.933846500299D+01
 1\1\GINC-GAMBA\SP\UCCSD(T)-RW\Gen\F3Th1(2+,2)\IRIKURA\17-May-2017\0\\#
  CCSD(T,maxcyc=100,window=(13,0))/GEN gfinput geom=check scf=xqc pseud
 o=read\\BEB step 10: low-spin CCSD(T) for dication of thf3; only 12 co
 res frozen\\2,2\Th,0,0.,0.,0.\F,0,-1.810539525,1.0453154808,0.\F,0,0.0
 000000011,-2.0906309636,0.\F,0,1.8105395239,1.0453154828,0.\\Version=E
 S64L-G09RevD.01\HF=-703.8994462\MP2=-704.9632083\MP3=-704.9395544\MP4D
 =-704.9656139\MP4DQ=-704.9405535\PUHF=-703.9176916\PMP2-0=-704.976801\
 PMP3-0=-704.9478324\MP4SDQ=-704.9670532\CCSD=-704.9608342\CCSD(T)=-705
 .0096869\S2=0.86809\S2-1=0.805181\S2A=0.758829\RMSD=3.480e-09\PG=D03H 
 [O(Th1),3C2(F1)]\\@


 Change starts when someone sees the next step.
                            -- William Drayton
 Job cpu time:       0 days  2 hours  9 minutes 12.3 seconds.
 File lengths (MBytes):  RWF=   2308 Int=      0 D2E=      0 Chk=      5 Scr=      1
 Normal termination of Gaussian 09 at Wed May 17 18:02:55 2017.
