 Entering Gaussian System, Link 0=g09
 Initial command:
 /usr/local/apps/g09/l1.exe "/wrk/irikura/Gau-32234.inp" -scrdir="/wrk/irikura/"
 Entering Link 1 = /usr/local/apps/g09/l1.exe PID=     32236.
  
 Copyright (c) 1988,1990,1992,1993,1995,1998,2003,2009,2013,
            Gaussian, Inc.  All Rights Reserved.
  
 This is part of the Gaussian(R) 09 program.  It is based on
 the Gaussian(R) 03 system (copyright 2003, Gaussian, Inc.),
 the Gaussian(R) 98 system (copyright 1998, Gaussian, Inc.),
 the Gaussian(R) 94 system (copyright 1995, Gaussian, Inc.),
 the Gaussian 92(TM) system (copyright 1992, Gaussian, Inc.),
 the Gaussian 90(TM) system (copyright 1990, Gaussian, Inc.),
 the Gaussian 88(TM) system (copyright 1988, Gaussian, Inc.),
 the Gaussian 86(TM) system (copyright 1986, Carnegie Mellon
 University), and the Gaussian 82(TM) system (copyright 1983,
 Carnegie Mellon University). Gaussian is a federally registered
 trademark of Gaussian, Inc.
  
 This software contains proprietary and confidential information,
 including trade secrets, belonging to Gaussian, Inc.
  
 This software is provided under written license and may be
 used, copied, transmitted, or stored only in accord with that
 written license.
  
 The following legend is applicable only to US Government
 contracts under FAR:
  
                    RESTRICTED RIGHTS LEGEND
  
 Use, reproduction and disclosure by the US Government is
 subject to restrictions as set forth in subparagraphs (a)
 and (c) of the Commercial Computer Software - Restricted
 Rights clause in FAR 52.227-19.
  
 Gaussian, Inc.
 340 Quinnipiac St., Bldg. 40, Wallingford CT 06492
  
  
 ---------------------------------------------------------------
 Warning -- This program may not be used in any manner that
 competes with the business of Gaussian, Inc. or will provide
 assistance to any competitor of Gaussian, Inc.  The licensee
 of this program is prohibited from giving any competitor of
 Gaussian, Inc. access to this program.  By using this program,
 the user acknowledges that Gaussian, Inc. is engaged in the
 business of creating and licensing software in the field of
 computational chemistry and represents and warrants to the
 licensee that it is not a competitor of Gaussian, Inc. and that
 it will not use this program in any manner prohibited above.
 ---------------------------------------------------------------
  

 Cite this work as:
 Gaussian 09, Revision D.01,
 M. J. Frisch, G. W. Trucks, H. B. Schlegel, G. E. Scuseria, 
 M. A. Robb, J. R. Cheeseman, G. Scalmani, V. Barone, B. Mennucci, 
 G. A. Petersson, H. Nakatsuji, M. Caricato, X. Li, H. P. Hratchian, 
 A. F. Izmaylov, J. Bloino, G. Zheng, J. L. Sonnenberg, M. Hada, 
 M. Ehara, K. Toyota, R. Fukuda, J. Hasegawa, M. Ishida, T. Nakajima, 
 Y. Honda, O. Kitao, H. Nakai, T. Vreven, J. A. Montgomery, Jr., 
 J. E. Peralta, F. Ogliaro, M. Bearpark, J. J. Heyd, E. Brothers, 
 K. N. Kudin, V. N. Staroverov, T. Keith, R. Kobayashi, J. Normand, 
 K. Raghavachari, A. Rendell, J. C. Burant, S. S. Iyengar, J. Tomasi, 
 M. Cossi, N. Rega, J. M. Millam, M. Klene, J. E. Knox, J. B. Cross, 
 V. Bakken, C. Adamo, J. Jaramillo, R. Gomperts, R. E. Stratmann, 
 O. Yazyev, A. J. Austin, R. Cammi, C. Pomelli, J. W. Ochterski, 
 R. L. Martin, K. Morokuma, V. G. Zakrzewski, G. A. Voth, 
 P. Salvador, J. J. Dannenberg, S. Dapprich, A. D. Daniels, 
 O. Farkas, J. B. Foresman, J. V. Ortiz, J. Cioslowski, 
 and D. J. Fox, Gaussian, Inc., Wallingford CT, 2013.
 
 ******************************************
 Gaussian 09:  ES64L-G09RevD.01 24-Apr-2013
                17-May-2017 
 ******************************************
 %chk=no2.chk
 %nprocs=6
 Will use up to    6 processors via shared memory.
 %mem=1000mw
 ---------------------------------------------------------------
 # CCSD(T,maxcyc=100)/GEN gfinput geom=check scf=xqc guess=check
 ---------------------------------------------------------------
 1/29=2,38=1/1;
 2/12=2,40=1/2;
 3/5=7,11=9,14=-4,16=1,24=10,25=1,30=1,116=-2/1,2,3;
 4/5=1/1;
 5/5=2,8=3,13=1,38=6/2,8;
 8/6=4,9=120000,10=1/1,4;
 9/5=7,6=100,14=2/13;
 6/7=2,8=2,9=2,10=2/1;
 99/5=1,9=1/99;
 -------------------------------------------------
 BEB step 9: high-spin CCSD(T) for dication of no2
 -------------------------------------------------
 Structure from the checkpoint file:  "no2.chk"
 Charge =  2 Multiplicity = 4
 Redundant internal coordinates found in file.
 N,0,0.,0.,-0.3309564098
 O,0,0.,-1.1068398818,0.1406818249
 O,0,0.,1.1068398818,0.1406818249
 Recover connectivity data from disk.
                          Input orientation:                          
 ---------------------------------------------------------------------
 Center     Atomic      Atomic             Coordinates (Angstroms)
 Number     Number       Type             X           Y           Z
 ---------------------------------------------------------------------
      1          7           0        0.000000    0.000000   -0.330956
      2          8           0        0.000000   -1.106840    0.140682
      3          8           0        0.000000    1.106840    0.140682
 ---------------------------------------------------------------------
                    Distance matrix (angstroms):
                    1          2          3
     1  N    0.000000
     2  O    1.203136   0.000000
     3  O    1.203136   2.213680   0.000000
 Stoichiometry    NO2(2+,4)
 Framework group  C2V[C2(N),SGV(O2)]
 Deg. of freedom     2
 Full point group                 C2V     NOp   4
 Largest Abelian subgroup         C2V     NOp   4
 Largest concise Abelian subgroup C2      NOp   2
                         Standard orientation:                         
 ---------------------------------------------------------------------
 Center     Atomic      Atomic             Coordinates (Angstroms)
 Number     Number       Type             X           Y           Z
 ---------------------------------------------------------------------
      1          7           0        0.000000    0.000000    0.328096
      2          8           0        0.000000    1.106840   -0.143542
      3          8           0        0.000000   -1.106840   -0.143542
 ---------------------------------------------------------------------
 Rotational constants (GHZ):    233.2677521     12.8954254     12.2198898
 General basis read from cards:  (5D, 7F)
 AO basis set in the form of general basis input (Overlap normalization):
      1 0
 S   7 1.00       0.000000000000
      0.1142000000D+05  0.5345638595D-03
      0.1712000000D+04  0.4134356596D-02
      0.3893000000D+03  0.2123353578D-01
      0.1100000000D+03  0.8250062241D-01
      0.3557000000D+02  0.2381388709D+00
      0.1254000000D+02  0.4425515469D+00
      0.4644000000D+01  0.3537574220D+00
 S   6 1.00       0.000000000000
      0.3893000000D+03 -0.4898673501D-04
      0.1100000000D+03 -0.1195273230D-02
      0.3557000000D+02 -0.1034907144D-01
      0.1254000000D+02 -0.6486801896D-01
      0.4644000000D+01 -0.1715524774D+00
      0.5118000000D+00  0.1072895678D+01
 S   1 1.00       0.000000000000
      0.1293000000D+01  0.1000000000D+01
 S   1 1.00       0.000000000000
      0.1787000000D+00  0.1000000000D+01
 P   3 1.00       0.000000000000
      0.2663000000D+02  0.3980721230D-01
      0.5948000000D+01  0.2490026605D+00
      0.1742000000D+01  0.8104797267D+00
 P   1 1.00       0.000000000000
      0.5550000000D+00  0.1000000000D+01
 P   1 1.00       0.000000000000
      0.1725000000D+00  0.1000000000D+01
 D   1 1.00       0.000000000000
      0.1654000000D+01  0.1000000000D+01
 D   1 1.00       0.000000000000
      0.4690000000D+00  0.1000000000D+01
 F   1 1.00       0.000000000000
      0.1093000000D+01  0.1000000000D+01
 ****
      2 0
 S   7 1.00       0.000000000000
      0.1533000000D+05  0.5198089434D-03
      0.2299000000D+04  0.4020256215D-02
      0.5224000000D+03  0.2071282673D-01
      0.1473000000D+03  0.8101055358D-01
      0.4755000000D+02  0.2359629851D+00
      0.1676000000D+02  0.4426534455D+00
      0.6207000000D+01  0.3570644227D+00
 S   6 1.00       0.000000000000
      0.5224000000D+03 -0.4421150084D-04
      0.1473000000D+03 -0.1225910413D-02
      0.4755000000D+02 -0.1055177248D-01
      0.1676000000D+02 -0.6744526326D-01
      0.6207000000D+01 -0.1711986073D+00
      0.6882000000D+00  0.1073298561D+01
 S   1 1.00       0.000000000000
      0.1752000000D+01  0.1000000000D+01
 S   1 1.00       0.000000000000
      0.2384000000D+00  0.1000000000D+01
 P   3 1.00       0.000000000000
      0.3446000000D+02  0.4116348957D-01
      0.7749000000D+01  0.2577628359D+00
      0.2280000000D+01  0.8024192744D+00
 P   1 1.00       0.000000000000
      0.7156000000D+00  0.1000000000D+01
 P   1 1.00       0.000000000000
      0.2140000000D+00  0.1000000000D+01
 D   1 1.00       0.000000000000
      0.2314000000D+01  0.1000000000D+01
 D   1 1.00       0.000000000000
      0.6450000000D+00  0.1000000000D+01
 F   1 1.00       0.000000000000
      0.1428000000D+01  0.1000000000D+01
 ****
      3 0
 S   7 1.00       0.000000000000
      0.1533000000D+05  0.5198089434D-03
      0.2299000000D+04  0.4020256215D-02
      0.5224000000D+03  0.2071282673D-01
      0.1473000000D+03  0.8101055358D-01
      0.4755000000D+02  0.2359629851D+00
      0.1676000000D+02  0.4426534455D+00
      0.6207000000D+01  0.3570644227D+00
 S   6 1.00       0.000000000000
      0.5224000000D+03 -0.4421150084D-04
      0.1473000000D+03 -0.1225910413D-02
      0.4755000000D+02 -0.1055177248D-01
      0.1676000000D+02 -0.6744526326D-01
      0.6207000000D+01 -0.1711986073D+00
      0.6882000000D+00  0.1073298561D+01
 S   1 1.00       0.000000000000
      0.1752000000D+01  0.1000000000D+01
 S   1 1.00       0.000000000000
      0.2384000000D+00  0.1000000000D+01
 P   3 1.00       0.000000000000
      0.3446000000D+02  0.4116348957D-01
      0.7749000000D+01  0.2577628359D+00
      0.2280000000D+01  0.8024192744D+00
 P   1 1.00       0.000000000000
      0.7156000000D+00  0.1000000000D+01
 P   1 1.00       0.000000000000
      0.2140000000D+00  0.1000000000D+01
 D   1 1.00       0.000000000000
      0.2314000000D+01  0.1000000000D+01
 D   1 1.00       0.000000000000
      0.6450000000D+00  0.1000000000D+01
 F   1 1.00       0.000000000000
      0.1428000000D+01  0.1000000000D+01
 ****

 There are    40 symmetry adapted cartesian basis functions of A1  symmetry.
 There are    14 symmetry adapted cartesian basis functions of A2  symmetry.
 There are    19 symmetry adapted cartesian basis functions of B1  symmetry.
 There are    32 symmetry adapted cartesian basis functions of B2  symmetry.
 There are    33 symmetry adapted basis functions of A1  symmetry.
 There are    13 symmetry adapted basis functions of A2  symmetry.
 There are    17 symmetry adapted basis functions of B1  symmetry.
 There are    27 symmetry adapted basis functions of B2  symmetry.
    90 basis functions,   156 primitive gaussians,   105 cartesian basis functions
    12 alpha electrons        9 beta electrons
       nuclear repulsion energy        64.5602365158 Hartrees.
 NAtoms=    3 NActive=    3 NUniq=    2 SFac= 2.25D+00 NAtFMM=   60 NAOKFM=F Big=F
 Integral buffers will be    131072 words long.
 Raffenetti 2 integral format.
 Two-electron integral symmetry is turned on.
 One-electron integrals computed using PRISM.
 NBasis=    90 RedAO= T EigKep=  3.37D-03  NBF=    33    13    17    27
 NBsUse=    90 1.00D-06 EigRej= -1.00D+00 NBFU=    33    13    17    27
 Initial guess from the checkpoint file:  "no2.chk"
 B after Tr=     0.000000    0.000000    0.000000
         Rot=    1.000000    0.000000    0.000000    0.000000 Ang=   0.00 deg.
 Initial guess orbital symmetries:
 Alpha Orbitals:
       Occupied  (B2) (A1) (A1) (A1) (B2) (A1) (B2) (A1) (B1) (A2)
                 (B2) (A1)
       Virtual   (B1) (A1) (B2) (A1) (B1) (A1) (B2) (A1) (B2) (A2)
                 (A1) (B1) (B2) (B1) (A1) (A2) (A1) (B2) (B2) (A2)
                 (A1) (B1) (B2) (A1) (B1) (B2) (A2) (B2) (A1) (A1)
                 (B1) (A1) (B2) (A2) (B1) (A1) (B1) (B2) (A1) (A1)
                 (B2) (A2) (B1) (B2) (A1) (A1) (B1) (A2) (A1) (B2)
                 (B2) (A2) (B2) (B1) (A1) (A2) (B1) (B2) (A1) (A1)
                 (A2) (B2) (B1) (A1) (A2) (A1) (B2) (B2) (B1) (A2)
                 (A1) (B2) (B1) (A1) (B2) (A1) (B2) (A1)
 Beta  Orbitals:
       Occupied  (B2) (A1) (A1) (A1) (B2) (A1) (B2) (A1) (B1)
       Virtual   (A2) (B2) (A1) (B1) (A1) (B2) (A1) (B1) (A1) (B2)
                 (A1) (B2) (A2) (A1) (B1) (B2) (B1) (A1) (A2) (A1)
                 (B2) (B2) (A2) (A1) (B1) (B2) (A1) (B1) (B2) (A2)
                 (B2) (A1) (A1) (B1) (A1) (B2) (A2) (B1) (A1) (B1)
                 (B2) (A1) (A1) (B2) (A2) (B1) (B2) (A1) (A1) (B1)
                 (A2) (A1) (B2) (B2) (A2) (B2) (B1) (A1) (A2) (B1)
                 (B2) (A1) (A1) (A2) (B2) (B1) (A1) (A2) (A1) (B2)
                 (B2) (B1) (A2) (A1) (B2) (B1) (A1) (B2) (A1) (B2)
                 (A1)
 Initial guess <Sx>= 0.0000 <Sy>= 0.0000 <Sz>= 1.5000 <S**2>= 3.7500 S= 1.5000
 Keep R1 and R2 ints in memory in symmetry-blocked form, NReq=10567833.
 Requested convergence on RMS density matrix=1.00D-08 within  64 cycles.
 Requested convergence on MAX density matrix=1.00D-06.
 Requested convergence on             energy=1.00D-06.
 No special actions if energy rises.
 SCF Done:  E(UHF) =  -202.897882648     A.U. after   16 cycles
            NFock= 16  Conv=0.45D-08     -V/T= 1.9993
 <Sx>= 0.0000 <Sy>= 0.0000 <Sz>= 1.5000 <S**2>= 4.1658 S= 1.6014
 <L.S>= 0.000000000000E+00
 Annihilation of the first spin contaminant:
 S**2 before annihilation     4.1658,   after     3.7728
 QCSCF skips out because SCF is already converged.
 ExpMin= 1.72D-01 ExpMax= 1.53D+04 ExpMxC= 5.22D+02 IAcc=3 IRadAn=         5 AccDes= 0.00D+00
 HarFok:  IExCor=  205 AccDes= 0.00D+00 IRadAn=         5 IDoV=-2 UseB2=F ITyADJ=14
 ICtDFT= 12500011 ScaDFX=  1.000000  1.000000  1.000000  1.000000
 Range of M.O.s used for correlation:     4    90
 NBasis=    90 NAE=    12 NBE=     9 NFC=     3 NFV=     0
 NROrb=     87 NOA=     9 NOB=     6 NVA=    78 NVB=    81
 Semi-Direct transformation.
 ModeAB=           4 MOrb=             9 LenV=    1048177755
 LASXX=       693038 LTotXX=      693038 LenRXX=     1421199
 LTotAB=      728161 MaxLAS=     2635578 LenRXY=           0
 NonZer=     2114237 LenScr=     3929600 LnRSAI=     2635578
 LnScr1=     4715520 LExtra=           0 Total=     12701897
 MaxDsk=          -1 SrtSym=           T ITran=            4
 JobTyp=1 Pass  1:  I=   1 to   9.
 (rs|ai) integrals will be sorted in core.
 ModeAB=           4 MOrb=             6 LenV=    1048177755
 LASXX=       474408 LTotXX=      474408 LenRXX=      872527
 LTotAB=      398119 MaxLAS=     1757052 LenRXY=           0
 NonZer=     1346935 LenScr=     2693120 LnRSAI=     1757052
 LnScr1=     3292160 LExtra=           0 Total=      8614859
 MaxDsk=          -1 SrtSym=           T ITran=            4
 JobTyp=2 Pass  1:  I=   1 to   6.
 (rs|ai) integrals will be sorted in core.
 Spin components of T(2) and E(2):
     alpha-alpha T2 =       0.1515706157D-01 E2=     -0.7591739715D-01
     alpha-beta  T2 =       0.7940607476D-01 E2=     -0.3441997683D+00
     beta-beta   T2 =       0.1819118251D-01 E2=     -0.5440605275D-01
 ANorm=    0.1054871707D+01
 E2 =    -0.4745232183D+00 EUMP2 =    -0.20337240586655D+03
 (S**2,0)=  0.41658D+01           (S**2,1)=  0.40645D+01
 E(PUHF)=      -0.20292359832D+03        E(PMP2)=      -0.20339510489D+03
 Keep R2 and R3 ints in memory in symmetry-blocked form, NReq=10528716.
 Iterations= 100 Convergence= 0.100D-06
 Iteration Nr.   1
 **********************
 DD1Dir will call FoFMem   1 times, MxPair=       160
 NAB=    54 NAA=    36 NBB=    15.
 E(PMP3)=      -0.20341407202D+03
 MP4(R+Q)=  0.10728291D-01
 E3=       -0.23836636D-01        EUMP3=      -0.20339624250D+03
 E4(DQ)=   -0.38038032D-03        UMP4(DQ)=   -0.20339662288D+03
 E4(SDQ)=  -0.15638568D-01        UMP4(SDQ)=  -0.20341188107D+03
 DE(Corr)= -0.48808204     E(Corr)=     -203.38596469    
 NORM(A)=   0.10651587D+01
 Iteration Nr.   2
 **********************
 DD1Dir will call FoFMem   1 times, MxPair=       160
 NAB=    54 NAA=    36 NBB=    15.
 DE(Corr)= -0.51087473     E(CORR)=     -203.40875738     Delta=-2.28D-02
 NORM(A)=   0.10844257D+01
 Iteration Nr.   3
 **********************
 DD1Dir will call FoFMem   1 times, MxPair=       160
 NAB=    54 NAA=    36 NBB=    15.
 DE(Corr)= -0.51748086     E(CORR)=     -203.41536351     Delta=-6.61D-03
 NORM(A)=   0.11120594D+01
 Iteration Nr.   4
 **********************
 DD1Dir will call FoFMem   1 times, MxPair=       160
 NAB=    54 NAA=    36 NBB=    15.
 DE(Corr)= -0.52943152     E(CORR)=     -203.42731416     Delta=-1.20D-02
 NORM(A)=   0.11251980D+01
 Iteration Nr.   5
 **********************
 DD1Dir will call FoFMem   1 times, MxPair=       160
 NAB=    54 NAA=    36 NBB=    15.
 DE(Corr)= -0.53266836     E(CORR)=     -203.43055100     Delta=-3.24D-03
 NORM(A)=   0.11273827D+01
 Iteration Nr.   6
 **********************
 DD1Dir will call FoFMem   1 times, MxPair=       160
 NAB=    54 NAA=    36 NBB=    15.
 DE(Corr)= -0.53301926     E(CORR)=     -203.43090191     Delta=-3.51D-04
 NORM(A)=   0.11276998D+01
 Iteration Nr.   7
 **********************
 DD1Dir will call FoFMem   1 times, MxPair=       160
 NAB=    54 NAA=    36 NBB=    15.
 DE(Corr)= -0.53307930     E(CORR)=     -203.43096195     Delta=-6.00D-05
 NORM(A)=   0.11277783D+01
 Iteration Nr.   8
 **********************
 DD1Dir will call FoFMem   1 times, MxPair=       160
 NAB=    54 NAA=    36 NBB=    15.
 DE(Corr)= -0.53306618     E(CORR)=     -203.43094883     Delta= 1.31D-05
 NORM(A)=   0.11277187D+01
 Iteration Nr.   9
 **********************
 DD1Dir will call FoFMem   1 times, MxPair=       160
 NAB=    54 NAA=    36 NBB=    15.
 DE(Corr)= -0.53309347     E(CORR)=     -203.43097611     Delta=-2.73D-05
 NORM(A)=   0.11277232D+01
 Iteration Nr.  10
 **********************
 DD1Dir will call FoFMem   1 times, MxPair=       160
 NAB=    54 NAA=    36 NBB=    15.
 DE(Corr)= -0.53308758     E(CORR)=     -203.43097023     Delta= 5.88D-06
 NORM(A)=   0.11277376D+01
 Iteration Nr.  11
 **********************
 DD1Dir will call FoFMem   1 times, MxPair=       160
 NAB=    54 NAA=    36 NBB=    15.
 DE(Corr)= -0.53309847     E(CORR)=     -203.43098111     Delta=-1.09D-05
 NORM(A)=   0.11277636D+01
 Iteration Nr.  12
 **********************
 DD1Dir will call FoFMem   1 times, MxPair=       160
 NAB=    54 NAA=    36 NBB=    15.
 DE(Corr)= -0.53310385     E(CORR)=     -203.43098650     Delta=-5.39D-06
 NORM(A)=   0.11277844D+01
 Iteration Nr.  13
 **********************
 DD1Dir will call FoFMem   1 times, MxPair=       160
 NAB=    54 NAA=    36 NBB=    15.
 DE(Corr)= -0.53310893     E(CORR)=     -203.43099158     Delta=-5.08D-06
 NORM(A)=   0.11277974D+01
 Iteration Nr.  14
 **********************
 DD1Dir will call FoFMem   1 times, MxPair=       160
 NAB=    54 NAA=    36 NBB=    15.
 DE(Corr)= -0.53311191     E(CORR)=     -203.43099456     Delta=-2.98D-06
 NORM(A)=   0.11278056D+01
 Iteration Nr.  15
 **********************
 DD1Dir will call FoFMem   1 times, MxPair=       160
 NAB=    54 NAA=    36 NBB=    15.
 DE(Corr)= -0.53311360     E(CORR)=     -203.43099625     Delta=-1.69D-06
 NORM(A)=   0.11278086D+01
 Iteration Nr.  16
 **********************
 DD1Dir will call FoFMem   1 times, MxPair=       160
 NAB=    54 NAA=    36 NBB=    15.
 DE(Corr)= -0.53311449     E(CORR)=     -203.43099714     Delta=-8.92D-07
 NORM(A)=   0.11278099D+01
 Iteration Nr.  17
 **********************
 DD1Dir will call FoFMem   1 times, MxPair=       160
 NAB=    54 NAA=    36 NBB=    15.
 DE(Corr)= -0.53311473     E(CORR)=     -203.43099738     Delta=-2.40D-07
 NORM(A)=   0.11278098D+01
 Iteration Nr.  18
 **********************
 DD1Dir will call FoFMem   1 times, MxPair=       160
 NAB=    54 NAA=    36 NBB=    15.
 DE(Corr)= -0.53311478     E(CORR)=     -203.43099743     Delta=-4.85D-08
 NORM(A)=   0.11278097D+01
 Dominant configurations:
 ***********************
 Spin Case        I    J    A    B          Value
    AA            9        13            0.181941D+00
    BB            9        12           -0.139970D+00
    BB            8        13            0.154751D+00
   ABAB          10    8   13   10       0.126961D+00
 Largest amplitude= 1.82D-01
 Time for triples=       19.29 seconds.
 T4(CCSD)= -0.31493076D-01
 T5(CCSD)=  0.41339248D-02
 CCSD(T)= -0.20345835658D+03

 S**2, projected HF & approx projected MPn energies after annihilation of
 unwanted spin states (see manual for definitions):

 spins       (S**2,0) (S**2,1)    PUHF        PMP2        PMP3        PMP4
 annihilated
 s+1         3.73403  3.74876 -202.923598 -203.395104 -203.414071
 s+1,s+2     3.75015  3.74986 -202.921808 -203.393535 -203.412755
 s+1 to s+3  3.75000  3.75000 -202.921829 -203.393552 -203.412766
 s+1 to s+4  3.75000  3.75000 -202.921829 -203.393552 -203.412766
 s+1 to s+5  3.75000  3.75000 -202.921829
 s+1 to s+6  3.75000  3.75000 -202.921829

 Discarding MO integrals.

 **********************************************************************

            Population analysis using the SCF density.

 **********************************************************************

 Orbital symmetries:
 Alpha Orbitals:
       Occupied  (B2) (A1) (A1) (A1) (B2) (A1) (A1) (B2) (B1) (A2)
                 (B2) (A1)
       Virtual   (B1) (A1) (B2) (A1) (B1) (A1) (B2) (A1) (B2) (A2)
                 (A1) (B2) (B1) (A1) (B1) (A2) (B2) (A1) (B2) (A2)
                 (A1) (B1) (B2) (A1) (B1) (B2) (B2) (A2) (A1) (A1)
                 (B1) (A1) (B2) (A2) (B1) (B2) (A1) (B1) (A1) (A1)
                 (B2) (A2) (B1) (B2) (A1) (A1) (B1) (A2) (A1) (B2)
                 (B2) (A2) (B1) (A1) (B2) (A2) (B1) (A1) (B2) (A1)
                 (A2) (B2) (B1) (A1) (A2) (B2) (A1) (B1) (B2) (A2)
                 (A1) (B2) (B1) (A1) (B2) (A1) (B2) (A1)
 Beta  Orbitals:
       Occupied  (A1) (B2) (A1) (A1) (B2) (A1) (B2) (B1) (A1)
       Virtual   (A2) (B2) (A1) (B1) (A1) (B2) (A1) (B1) (A1) (B2)
                 (A1) (B2) (A2) (A1) (B2) (B1) (B1) (A1) (A2) (A1)
                 (B2) (B2) (A2) (A1) (B2) (B1) (A1) (B1) (B2) (A2)
                 (B2) (A1) (A1) (B1) (A1) (B2) (A2) (B1) (B2) (A1)
                 (B1) (A1) (A1) (B2) (A2) (B1) (B2) (A1) (A1) (B1)
                 (A2) (A1) (B2) (B2) (A2) (B1) (A1) (B2) (A2) (B1)
                 (A1) (B2) (A1) (A2) (B2) (B1) (A1) (A2) (A1) (B2)
                 (B1) (B2) (A2) (A1) (B2) (B1) (A1) (B2) (A1) (B2)
                 (A1)
 The electronic state is 4-B1.
 Alpha  occ. eigenvalues --  -21.62994 -21.62990 -16.52017  -2.50198  -2.38723
 Alpha  occ. eigenvalues --   -1.74679  -1.64480  -1.62522  -1.59913  -1.51753
 Alpha  occ. eigenvalues --   -1.51639  -1.24710
 Alpha virt. eigenvalues --   -0.58628  -0.32174  -0.14403  -0.07334  -0.00007
 Alpha virt. eigenvalues --    0.01048   0.03672   0.11284   0.13288   0.13581
 Alpha virt. eigenvalues --    0.19122   0.21786   0.23264   0.45139   0.46533
 Alpha virt. eigenvalues --    0.59437   0.81001   0.83680   0.87865   0.92150
 Alpha virt. eigenvalues --    0.98631   1.06555   1.08418   1.27834   1.50661
 Alpha virt. eigenvalues --    1.62687   1.74907   1.75048   1.78073   1.92626
 Alpha virt. eigenvalues --    2.56349   2.58391   2.85827   3.14618   3.18212
 Alpha virt. eigenvalues --    3.18985   3.31945   3.35817   3.39247   3.46837
 Alpha virt. eigenvalues --    3.54887   3.56444   3.79345   3.88146   3.93211
 Alpha virt. eigenvalues --    4.05152   4.14874   4.19199   4.21384   4.29742
 Alpha virt. eigenvalues --    4.62189   4.62256   4.65104   4.65680   4.70346
 Alpha virt. eigenvalues --    4.98303   5.04539   5.09062   5.10994   5.51112
 Alpha virt. eigenvalues --    5.72191   5.74128   5.77894   5.79306   5.89566
 Alpha virt. eigenvalues --    6.06303   6.07921   6.13801   6.16402   6.47427
 Alpha virt. eigenvalues --    6.49663   6.57601   6.62628   6.85649   7.13564
 Alpha virt. eigenvalues --    7.41774  11.49816  13.13097
  Beta  occ. eigenvalues --  -21.54517 -21.54517 -16.53443  -2.36356  -2.12415
  Beta  occ. eigenvalues --   -1.59858  -1.48647  -1.41316  -1.34364
  Beta virt. eigenvalues --   -0.72403  -0.71428  -0.59150  -0.50303  -0.26168
  Beta virt. eigenvalues --   -0.08178  -0.05741  -0.00663   0.03967   0.06617
  Beta virt. eigenvalues --    0.14345   0.19703   0.22585   0.25496   0.28594
  Beta virt. eigenvalues --    0.28892   0.47127   0.47182   0.62664   0.88440
  Beta virt. eigenvalues --    0.90274   0.93554   1.04087   1.08652   1.17078
  Beta virt. eigenvalues --    1.17102   1.32995   1.55336   1.67327   1.80152
  Beta virt. eigenvalues --    1.80655   1.82013   1.99267   2.50613   2.61269
  Beta virt. eigenvalues --    2.86015   3.24282   3.30261   3.33126   3.33361
  Beta virt. eigenvalues --    3.34924   3.45757   3.53650   3.58569   3.59554
  Beta virt. eigenvalues --    3.82343   3.91197   3.94206   4.06842   4.12768
  Beta virt. eigenvalues --    4.20075   4.23468   4.34462   4.72244   4.72403
  Beta virt. eigenvalues --    4.75215   4.75783   4.75881   5.04485   5.11917
  Beta virt. eigenvalues --    5.16693   5.17720   5.59243   5.89416   5.91985
  Beta virt. eigenvalues --    5.95935   5.96400   5.99255   6.12765   6.14756
  Beta virt. eigenvalues --    6.24263   6.24291   6.52865   6.57620   6.63114
  Beta virt. eigenvalues --    6.65804   6.90675   7.17659   7.48273  11.56399
  Beta virt. eigenvalues --   13.15626
          Condensed to atoms (all electrons):
               1          2          3
     1  N    5.799750   0.300821   0.300821
     2  O    0.300821   7.005421  -0.006938
     3  O    0.300821  -0.006938   7.005421
          Atomic-Atomic Spin Densities.
               1          2          3
     1  N   -0.350567  -0.113656  -0.113656
     2  O   -0.113656   1.912942  -0.010347
     3  O   -0.113656  -0.010347   1.912942
 Mulliken charges and spin densities:
               1          2
     1  N    0.598609  -0.577878
     2  O    0.700696   1.788939
     3  O    0.700696   1.788939
 Sum of Mulliken charges =   2.00000   3.00000
 Mulliken charges and spin densities with hydrogens summed into heavy atoms:
               1          2
     1  N    0.598609  -0.577878
     2  O    0.700696   1.788939
     3  O    0.700696   1.788939
 Electronic spatial extent (au):  <R**2>=             92.3179
 Charge=              2.0000 electrons
 Dipole moment (field-independent basis, Debye):
    X=              0.0000    Y=              0.0000    Z=             -0.4900  Tot=              0.4900
 Quadrupole moment (field-independent basis, Debye-Ang):
   XX=            -10.7344   YY=             -2.7076   ZZ=            -11.3758
   XY=              0.0000   XZ=              0.0000   YZ=              0.0000
 Traceless Quadrupole moment (field-independent basis, Debye-Ang):
   XX=             -2.4618   YY=              5.5650   ZZ=             -3.1032
   XY=              0.0000   XZ=              0.0000   YZ=              0.0000
 Octapole moment (field-independent basis, Debye-Ang**2):
  XXX=              0.0000  YYY=              0.0000  ZZZ=             -1.4941  XYY=              0.0000
  XXY=              0.0000  XXZ=             -0.3198  XZZ=              0.0000  YZZ=              0.0000
  YYZ=             -0.8646  XYZ=              0.0000
 Hexadecapole moment (field-independent basis, Debye-Ang**3):
 XXXX=             -6.1169 YYYY=            -50.2320 ZZZZ=            -10.9953 XXXY=              0.0000
 XXXZ=              0.0000 YYYX=              0.0000 YYYZ=              0.0000 ZZZX=              0.0000
 ZZZY=              0.0000 XXYY=            -10.5706 XXZZ=             -2.7733 YYZZ=            -11.4613
 XXYZ=              0.0000 YYXZ=              0.0000 ZZXY=              0.0000
 N-N= 6.456023651581D+01 E-N=-5.924436577091D+02  KE= 2.030479559373D+02
 Symmetry A1   KE= 1.220743626067D+02
 Symmetry A2   KE= 2.970290631170D+00
 Symmetry B1   KE= 4.513125885927D+00
 Symmetry B2   KE= 7.349017681352D+01
 1\1\GINC-GAMBA\SP\UCCSD(T)-FC\Gen\N1O2(2+,4)\IRIKURA\17-May-2017\0\\# 
 CCSD(T,maxcyc=100)/GEN gfinput geom=check scf=xqc guess=check\\BEB ste
 p 9: high-spin CCSD(T) for dication of no2\\2,4\N,0,0.,0.,-0.330956409
 8\O,0,0.,-1.1068398818,0.1406818249\O,0,0.,1.1068398818,0.1406818249\\
 Version=ES64L-G09RevD.01\State=4-B1\HF=-202.8978826\MP2=-203.3724059\M
 P3=-203.3962425\MP4D=-203.4073512\MP4DQ=-203.3966229\PUHF=-202.9235983
 \PMP2-0=-203.3951049\PMP3-0=-203.414072\MP4SDQ=-203.4118811\CCSD=-203.
 4309974\CCSD(T)=-203.4583566\S2=4.165798\S2-1=4.064483\S2A=3.772793\RM
 SD=4.531e-09\PG=C02V [C2(N1),SGV(O2)]\\@


 AND ALL THIS SCIENCE I DON'T UNDERSTAND
 IT'S JUST MY JOB FIVE DAYS A WEEK

                           -- ELTON JOHN, "ROCKET MAN"
 Job cpu time:       0 days  0 hours  2 minutes  7.1 seconds.
 File lengths (MBytes):  RWF=    108 Int=      0 D2E=      0 Chk=      2 Scr=      1
 Normal termination of Gaussian 09 at Wed May 17 13:47:50 2017.
