 Entering Gaussian System, Link 0=g09
 Initial command:
 /usr/local/apps/g09/l1.exe "/wrk/irikura/Gau-31343.inp" -scrdir="/wrk/irikura/"
 Entering Link 1 = /usr/local/apps/g09/l1.exe PID=     31345.
  
 Copyright (c) 1988,1990,1992,1993,1995,1998,2003,2009,2013,
            Gaussian, Inc.  All Rights Reserved.
  
 This is part of the Gaussian(R) 09 program.  It is based on
 the Gaussian(R) 03 system (copyright 2003, Gaussian, Inc.),
 the Gaussian(R) 98 system (copyright 1998, Gaussian, Inc.),
 the Gaussian(R) 94 system (copyright 1995, Gaussian, Inc.),
 the Gaussian 92(TM) system (copyright 1992, Gaussian, Inc.),
 the Gaussian 90(TM) system (copyright 1990, Gaussian, Inc.),
 the Gaussian 88(TM) system (copyright 1988, Gaussian, Inc.),
 the Gaussian 86(TM) system (copyright 1986, Carnegie Mellon
 University), and the Gaussian 82(TM) system (copyright 1983,
 Carnegie Mellon University). Gaussian is a federally registered
 trademark of Gaussian, Inc.
  
 This software contains proprietary and confidential information,
 including trade secrets, belonging to Gaussian, Inc.
  
 This software is provided under written license and may be
 used, copied, transmitted, or stored only in accord with that
 written license.
  
 The following legend is applicable only to US Government
 contracts under FAR:
  
                    RESTRICTED RIGHTS LEGEND
  
 Use, reproduction and disclosure by the US Government is
 subject to restrictions as set forth in subparagraphs (a)
 and (c) of the Commercial Computer Software - Restricted
 Rights clause in FAR 52.227-19.
  
 Gaussian, Inc.
 340 Quinnipiac St., Bldg. 40, Wallingford CT 06492
  
  
 ---------------------------------------------------------------
 Warning -- This program may not be used in any manner that
 competes with the business of Gaussian, Inc. or will provide
 assistance to any competitor of Gaussian, Inc.  The licensee
 of this program is prohibited from giving any competitor of
 Gaussian, Inc. access to this program.  By using this program,
 the user acknowledges that Gaussian, Inc. is engaged in the
 business of creating and licensing software in the field of
 computational chemistry and represents and warrants to the
 licensee that it is not a competitor of Gaussian, Inc. and that
 it will not use this program in any manner prohibited above.
 ---------------------------------------------------------------
  

 Cite this work as:
 Gaussian 09, Revision D.01,
 M. J. Frisch, G. W. Trucks, H. B. Schlegel, G. E. Scuseria, 
 M. A. Robb, J. R. Cheeseman, G. Scalmani, V. Barone, B. Mennucci, 
 G. A. Petersson, H. Nakatsuji, M. Caricato, X. Li, H. P. Hratchian, 
 A. F. Izmaylov, J. Bloino, G. Zheng, J. L. Sonnenberg, M. Hada, 
 M. Ehara, K. Toyota, R. Fukuda, J. Hasegawa, M. Ishida, T. Nakajima, 
 Y. Honda, O. Kitao, H. Nakai, T. Vreven, J. A. Montgomery, Jr., 
 J. E. Peralta, F. Ogliaro, M. Bearpark, J. J. Heyd, E. Brothers, 
 K. N. Kudin, V. N. Staroverov, T. Keith, R. Kobayashi, J. Normand, 
 K. Raghavachari, A. Rendell, J. C. Burant, S. S. Iyengar, J. Tomasi, 
 M. Cossi, N. Rega, J. M. Millam, M. Klene, J. E. Knox, J. B. Cross, 
 V. Bakken, C. Adamo, J. Jaramillo, R. Gomperts, R. E. Stratmann, 
 O. Yazyev, A. J. Austin, R. Cammi, C. Pomelli, J. W. Ochterski, 
 R. L. Martin, K. Morokuma, V. G. Zakrzewski, G. A. Voth, 
 P. Salvador, J. J. Dannenberg, S. Dapprich, A. D. Daniels, 
 O. Farkas, J. B. Foresman, J. V. Ortiz, J. Cioslowski, 
 and D. J. Fox, Gaussian, Inc., Wallingford CT, 2013.
 
 ******************************************
 Gaussian 09:  ES64L-G09RevD.01 24-Apr-2013
                17-May-2017 
 ******************************************
 %chk=no2.chk
 %nprocs=6
 Will use up to    6 processors via shared memory.
 %mem=1000mw
 ---------------------------------------
 # B3LYP/GEN gfinput OPT FREQ scf=xqc 6D
 ---------------------------------------
 1/14=-1,18=20,19=15,26=3,38=1/1,3;
 2/9=110,12=2,17=6,18=5,40=1/2;
 3/5=7,8=2,11=2,16=1,24=10,25=1,30=1,71=1,74=-5/1,2,3;
 4//1;
 5/5=2,8=3,13=1,38=5/2,8;
 6/7=2,8=2,9=2,10=2,28=1/1;
 7//1,2,3,16;
 1/14=-1,18=20,19=15,26=3/3(2);
 2/9=110/2;
 99//99;
 2/9=110/2;
 3/5=7,6=1,8=2,11=2,16=1,25=1,30=1,71=1,74=-5,82=7/1,2,3;
 4/5=5,16=3,69=1/1;
 5/5=2,8=3,13=1,38=5/2,8;
 7//1,2,3,16;
 1/14=-1,18=20,19=15,26=3/3(-5);
 2/9=110/2;
 6/7=2,8=2,9=2,10=2,19=2,28=1/1;
 99/9=1/99;
 ----------------------------------
 BEB step 1: geom and freqs for no2
 ----------------------------------
 Symbolic Z-matrix:
 Charge =  0 Multiplicity = 2
 N                     0.        0.       -0.39674 
 O                     0.       -1.05507   0.17357 
 O                     0.        1.05507   0.17357 
 

 GradGradGradGradGradGradGradGradGradGradGradGradGradGradGradGradGradGrad
 Berny optimization.
 Initialization pass.
                           ----------------------------
                           !    Initial Parameters    !
                           ! (Angstroms and Degrees)  !
 --------------------------                            --------------------------
 ! Name  Definition              Value          Derivative Info.                !
 --------------------------------------------------------------------------------
 ! R1    R(1,2)                  1.1993         estimate D2E/DX2                !
 ! R2    R(1,3)                  1.1993         estimate D2E/DX2                !
 ! A1    A(2,1,3)              123.214          estimate D2E/DX2                !
 --------------------------------------------------------------------------------
 Trust Radius=3.00D-01 FncErr=1.00D-07 GrdErr=1.00D-06
 Number of steps in this run=     20 maximum allowed number of steps=    100.
 GradGradGradGradGradGradGradGradGradGradGradGradGradGradGradGradGradGrad

                          Input orientation:                          
 ---------------------------------------------------------------------
 Center     Atomic      Atomic             Coordinates (Angstroms)
 Number     Number       Type             X           Y           Z
 ---------------------------------------------------------------------
      1          7           0        0.000000    0.000000   -0.396735
      2          8           0        0.000000   -1.055067    0.173571
      3          8           0        0.000000    1.055067    0.173571
 ---------------------------------------------------------------------
                    Distance matrix (angstroms):
                    1          2          3
     1  N    0.000000
     2  O    1.199339   0.000000
     3  O    1.199339   2.110133   0.000000
 Stoichiometry    NO2(2)
 Framework group  C2V[C2(N),SGV(O2)]
 Deg. of freedom     2
 Full point group                 C2V     NOp   4
 Largest Abelian subgroup         C2V     NOp   4
 Largest concise Abelian subgroup C2      NOp   2
                         Standard orientation:                         
 ---------------------------------------------------------------------
 Center     Atomic      Atomic             Coordinates (Angstroms)
 Number     Number       Type             X           Y           Z
 ---------------------------------------------------------------------
      1          7           0        0.000000    0.000000    0.396735
      2          8           0        0.000000    1.055067   -0.173571
      3          8           0        0.000000   -1.055067   -0.173571
 ---------------------------------------------------------------------
 Rotational constants (GHZ):    159.5351468     14.1920604     13.0326877
 General basis read from cards:  (6D, 7F)
 AO basis set in the form of general basis input (Overlap normalization):
      1 0
 S   6 1.00       0.000000000000
      0.4173511460D+04  0.1834772160D-02
      0.6274579110D+03  0.1399462700D-01
      0.1429020930D+03  0.6858655181D-01
      0.4023432930D+02  0.2322408730D+00
      0.1282021290D+02  0.4690699481D+00
      0.4390437010D+01  0.3604551991D+00
 SP   3 1.00       0.000000000000
      0.1162636186D+02 -0.1149611817D+00  0.6757974388D-01
      0.2716279807D+01 -0.1691174786D+00  0.3239072959D+00
      0.7722183966D+00  0.1145851947D+01  0.7408951398D+00
 SP   1 1.00       0.000000000000
      0.2120314975D+00  0.1000000000D+01  0.1000000000D+01
 D   1 1.00       0.000000000000
      0.8000000000D+00  0.1000000000D+01
 ****
      2 0
 S   6 1.00       0.000000000000
      0.5484671660D+04  0.1831074430D-02
      0.8252349460D+03  0.1395017220D-01
      0.1880469580D+03  0.6844507810D-01
      0.5296450000D+02  0.2327143360D+00
      0.1689757040D+02  0.4701928980D+00
      0.5799635340D+01  0.3585208530D+00
 SP   3 1.00       0.000000000000
      0.1553961625D+02 -0.1107775495D+00  0.7087426823D-01
      0.3599933586D+01 -0.1480262627D+00  0.3397528391D+00
      0.1013761750D+01  0.1130767015D+01  0.7271585773D+00
 SP   1 1.00       0.000000000000
      0.2700058226D+00  0.1000000000D+01  0.1000000000D+01
 D   1 1.00       0.000000000000
      0.8000000000D+00  0.1000000000D+01
 ****
      3 0
 S   6 1.00       0.000000000000
      0.5484671660D+04  0.1831074430D-02
      0.8252349460D+03  0.1395017220D-01
      0.1880469580D+03  0.6844507810D-01
      0.5296450000D+02  0.2327143360D+00
      0.1689757040D+02  0.4701928980D+00
      0.5799635340D+01  0.3585208530D+00
 SP   3 1.00       0.000000000000
      0.1553961625D+02 -0.1107775495D+00  0.7087426823D-01
      0.3599933586D+01 -0.1480262627D+00  0.3397528391D+00
      0.1013761750D+01  0.1130767015D+01  0.7271585773D+00
 SP   1 1.00       0.000000000000
      0.2700058226D+00  0.1000000000D+01  0.1000000000D+01
 D   1 1.00       0.000000000000
      0.8000000000D+00  0.1000000000D+01
 ****

 There are    19 symmetry adapted cartesian basis functions of A1  symmetry.
 There are     5 symmetry adapted cartesian basis functions of A2  symmetry.
 There are     7 symmetry adapted cartesian basis functions of B1  symmetry.
 There are    14 symmetry adapted cartesian basis functions of B2  symmetry.
 There are    19 symmetry adapted basis functions of A1  symmetry.
 There are     5 symmetry adapted basis functions of A2  symmetry.
 There are     7 symmetry adapted basis functions of B1  symmetry.
 There are    14 symmetry adapted basis functions of B2  symmetry.
    45 basis functions,    84 primitive gaussians,    45 cartesian basis functions
    12 alpha electrons       11 beta electrons
       nuclear repulsion energy        65.4669350200 Hartrees.
 NAtoms=    3 NActive=    3 NUniq=    2 SFac= 2.25D+00 NAtFMM=   60 NAOKFM=F Big=F
 Integral buffers will be    131072 words long.
 Raffenetti 2 integral format.
 Two-electron integral symmetry is turned on.
 One-electron integrals computed using PRISM.
 NBasis=    45 RedAO= T EigKep=  5.81D-03  NBF=    19     5     7    14
 NBsUse=    45 1.00D-06 EigRej= -1.00D+00 NBFU=    19     5     7    14
 ExpMin= 2.12D-01 ExpMax= 5.48D+03 ExpMxC= 8.25D+02 IAcc=1 IRadAn=         1 AccDes= 0.00D+00
 Harris functional with IExCor=  402 and IRadAn=       1 diagonalized for initial guess.
 HarFok:  IExCor=  402 AccDes= 0.00D+00 IRadAn=         1 IDoV= 1 UseB2=F ITyADJ=14
 ICtDFT=  3500011 ScaDFX=  1.000000  1.000000  1.000000  1.000000
 FoFCou: FMM=F IPFlag=           0 FMFlag=      100000 FMFlg1=           0
         NFxFlg=           0 DoJE=T BraDBF=F KetDBF=T FulRan=T
         wScrn=  0.000000 ICntrl=     500 IOpCl=  0 I1Cent=   200000004 NGrid=           0
         NMat0=    1 NMatS0=      1 NMatT0=    0 NMatD0=    1 NMtDS0=    0 NMtDT0=    0
 Petite list used in FoFCou.
 Initial guess orbital symmetries:
 Alpha Orbitals:
       Occupied  (B2) (A1) (A1) (A1) (B2) (A1) (B2) (A1) (B1) (A2)
                 (B2) (A1)
       Virtual   (B1) (A1) (B2) (B2) (A1) (A1) (B1) (A1) (B2) (A1)
                 (A2) (B1) (B2) (A1) (B2) (A2) (B1) (A1) (B2) (A2)
                 (A1) (B1) (B2) (A1) (B1) (B2) (A1) (A2) (B2) (A1)
                 (A1) (B2) (A1)
 Beta  Orbitals:
       Occupied  (B2) (A1) (A1) (A1) (B2) (A1) (B2) (A1) (B1) (A2)
                 (B2)
       Virtual   (A1) (B1) (A1) (B2) (B2) (A1) (A1) (B1) (A1) (B2)
                 (A1) (A2) (B1) (B2) (A1) (B2) (A2) (B1) (A1) (B2)
                 (A2) (A1) (B1) (B2) (A1) (B1) (B2) (A1) (A2) (B2)
                 (A1) (A1) (B2) (A1)
 The electronic state of the initial guess is 2-A1.
 Initial guess <Sx>= 0.0000 <Sy>= 0.0000 <Sz>= 0.5000 <S**2>= 0.7500 S= 0.5000
 Keep R1 and R2 ints in memory in symmetry-blocked form, NReq=1416690.
 Requested convergence on RMS density matrix=1.00D-08 within  64 cycles.
 Requested convergence on MAX density matrix=1.00D-06.
 Requested convergence on             energy=1.00D-06.
 No special actions if energy rises.
 Integral accuracy reduced to 1.0D-05 until final iterations.
 Initial convergence to 1.0D-05 achieved.  Increase integral accuracy.
 SCF Done:  E(UB3LYP) =  -205.064930120     A.U. after   13 cycles
            NFock= 13  Conv=0.93D-08     -V/T= 2.0080
 <Sx>= 0.0000 <Sy>= 0.0000 <Sz>= 0.5000 <S**2>= 0.7536 S= 0.5018
 <L.S>= 0.000000000000E+00
 Annihilation of the first spin contaminant:
 S**2 before annihilation     0.7536,   after     0.7500
 QCSCF skips out because SCF is already converged.

 **********************************************************************

            Population analysis using the SCF density.

 **********************************************************************

 Orbital symmetries:
 Alpha Orbitals:
       Occupied  (B2) (A1) (A1) (A1) (B2) (A1) (A1) (B2) (B1) (A2)
                 (B2) (A1)
       Virtual   (B1) (A1) (B2) (A1) (B2) (A1) (B1) (A1) (B2) (A1)
                 (A2) (B1) (B2) (A1) (B2) (A2) (B1) (A1) (B2) (A2)
                 (A1) (B1) (B2) (A1) (B1) (B2) (A2) (A1) (B2) (A1)
                 (A1) (B2) (A1)
 Beta  Orbitals:
       Occupied  (B2) (A1) (A1) (A1) (B2) (A1) (B1) (B2) (A1) (A2)
                 (B2)
       Virtual   (A1) (B1) (A1) (B2) (B2) (A1) (A1) (B1) (A1) (B2)
                 (A1) (A2) (B1) (B2) (A1) (B2) (A2) (B1) (A1) (B2)
                 (A2) (A1) (B1) (B2) (A1) (B1) (B2) (A2) (A1) (B2)
                 (A1) (A1) (B2) (A1)
 The electronic state is 2-A1.
 Alpha  occ. eigenvalues --  -19.25920 -19.25918 -14.58703  -1.29356  -1.12428
 Alpha  occ. eigenvalues --   -0.68026  -0.57540  -0.56899  -0.56734  -0.37180
 Alpha  occ. eigenvalues --   -0.36717  -0.31186
 Alpha virt. eigenvalues --   -0.09036   0.26508   0.32798   0.57066   0.59287
 Alpha virt. eigenvalues --    0.59538   0.60950   0.79998   0.81020   0.85319
 Alpha virt. eigenvalues --    0.88925   0.91815   0.97080   1.20410   1.36474
 Alpha virt. eigenvalues --    1.37651   1.39945   1.46671   1.72401   1.75453
 Alpha virt. eigenvalues --    1.80743   1.81012   1.97194   2.21271   2.39351
 Alpha virt. eigenvalues --    2.56827   2.64905   2.66390   2.77675   2.88001
 Alpha virt. eigenvalues --    3.35506   3.60622   3.66064
  Beta  occ. eigenvalues --  -19.25015 -19.25012 -14.57745  -1.27566  -1.10160
  Beta  occ. eigenvalues --   -0.64436  -0.55709  -0.54409  -0.53396  -0.36356
  Beta  occ. eigenvalues --   -0.32600
  Beta virt. eigenvalues --   -0.17025  -0.07445   0.27830   0.35450   0.59824
  Beta virt. eigenvalues --    0.60118   0.60616   0.61669   0.80633   0.82427
  Beta virt. eigenvalues --    0.87867   0.89375   0.92499   0.99203   1.21965
  Beta virt. eigenvalues --    1.37534   1.38223   1.41807   1.49036   1.74399
  Beta virt. eigenvalues --    1.76649   1.82450   1.83308   1.98473   2.22945
  Beta virt. eigenvalues --    2.40503   2.59581   2.65968   2.68508   2.78570
  Beta virt. eigenvalues --    2.89869   3.37344   3.61922   3.67899
          Condensed to atoms (all electrons):
               1          2          3
     1  N    6.040480   0.257645   0.257645
     2  O    0.257645   8.080816  -0.116347
     3  O    0.257645  -0.116347   8.080816
          Atomic-Atomic Spin Densities.
               1          2          3
     1  N    0.650872  -0.129709  -0.129709
     2  O   -0.129709   0.408894   0.025087
     3  O   -0.129709   0.025087   0.408894
 Mulliken charges and spin densities:
               1          2
     1  N    0.444230   0.391455
     2  O   -0.222115   0.304273
     3  O   -0.222115   0.304273
 Sum of Mulliken charges =   0.00000   1.00000
 Mulliken charges and spin densities with hydrogens summed into heavy atoms:
               1          2
     1  N    0.444230   0.391455
     2  O   -0.222115   0.304273
     3  O   -0.222115   0.304273
 Electronic spatial extent (au):  <R**2>=            104.3612
 Charge=              0.0000 electrons
 Dipole moment (field-independent basis, Debye):
    X=              0.0000    Y=              0.0000    Z=              0.5024  Tot=              0.5024
 Quadrupole moment (field-independent basis, Debye-Ang):
   XX=            -14.5398   YY=            -17.6148   ZZ=            -15.0591
   XY=              0.0000   XZ=              0.0000   YZ=              0.0000
 Traceless Quadrupole moment (field-independent basis, Debye-Ang):
   XX=              1.1981   YY=             -1.8769   ZZ=              0.6788
   XY=              0.0000   XZ=              0.0000   YZ=              0.0000
 Octapole moment (field-independent basis, Debye-Ang**2):
  XXX=              0.0000  YYY=              0.0000  ZZZ=             -0.8979  XYY=              0.0000
  XXY=              0.0000  XXZ=             -0.1522  XZZ=              0.0000  YZZ=              0.0000
  YYZ=             -0.3440  XYZ=              0.0000
 Hexadecapole moment (field-independent basis, Debye-Ang**3):
 XXXX=            -10.0599 YYYY=            -82.5212 ZZZZ=            -17.5513 XXXY=              0.0000
 XXXZ=              0.0000 YYYX=              0.0000 YYYZ=              0.0000 ZZZX=              0.0000
 ZZZY=              0.0000 XXYY=            -14.9496 XXZZ=             -4.5134 YYZZ=            -15.8677
 XXYZ=              0.0000 YYXZ=              0.0000 ZZXY=              0.0000
 N-N= 6.546693502003D+01 E-N=-6.132001853408D+02  KE= 2.034282643136D+02
 Symmetry A1   KE= 1.199794508383D+02
 Symmetry A2   KE= 5.037578191743D+00
 Symmetry B1   KE= 3.824598039883D+00
 Symmetry B2   KE= 7.458663724365D+01
                          Isotropic Fermi Contact Couplings
        Atom                 a.u.       MegaHertz       Gauss      10(-4) cm-1
     1  N(14)              0.43544     140.69305      50.20278      46.93015
     2  O(17)              0.05346     -32.40842     -11.56413     -10.81029
     3  O(17)              0.05346     -32.40842     -11.56413     -10.81029
 --------------------------------------------------------
       Center         ----  Spin Dipole Couplings  ----
                      3XX-RR        3YY-RR        3ZZ-RR
 --------------------------------------------------------
     1   Atom       -0.410211     -0.459615      0.869825
     2   Atom       -0.740511     -0.733463      1.473974
     3   Atom       -0.740511     -0.733463      1.473974
 --------------------------------------------------------
                        XY            XZ            YZ
 --------------------------------------------------------
     1   Atom        0.000000      0.000000      0.000000
     2   Atom        0.000000      0.000000     -0.050466
     3   Atom        0.000000      0.000000      0.050466
 --------------------------------------------------------


 ---------------------------------------------------------------------------------
              Anisotropic Spin Dipole Couplings in Principal Axis System
 ---------------------------------------------------------------------------------

       Atom             a.u.   MegaHertz   Gauss  10(-4) cm-1        Axes

              Baa    -0.4596   -17.726    -6.325    -5.913  0.0000  1.0000  0.0000
     1 N(14)  Bbb    -0.4102   -15.821    -5.645    -5.277  1.0000  0.0000  0.0000
              Bcc     0.8698    33.547    11.970    11.190  0.0000  0.0000  1.0000
 
              Baa    -0.7405    53.583    19.120    17.873  1.0000  0.0000  0.0000
     2 O(17)  Bbb    -0.7346    53.156    18.967    17.731  0.0000  0.9997  0.0228
              Bcc     1.4751  -106.739   -38.087   -35.604  0.0000 -0.0228  0.9997
 
              Baa    -0.7405    53.583    19.120    17.873  1.0000  0.0000  0.0000
     3 O(17)  Bbb    -0.7346    53.156    18.967    17.731  0.0000  0.9997 -0.0228
              Bcc     1.4751  -106.739   -38.087   -35.604  0.0000  0.0228  0.9997
 

 ---------------------------------------------------------------------------------

 Calling FoFJK, ICntrl=      2127 FMM=F ISym2X=1 I1Cent= 0 IOpClX= 1 NMat=1 NMatS=1 NMatT=0.
 ***** Axes restored to original set *****
 -------------------------------------------------------------------
 Center     Atomic                   Forces (Hartrees/Bohr)
 Number     Number              X              Y              Z
 -------------------------------------------------------------------
      1        7           0.000000000    0.000000000    0.041069927
      2        8           0.000000000   -0.037578369   -0.020534963
      3        8           0.000000000    0.037578369   -0.020534963
 -------------------------------------------------------------------
 Cartesian Forces:  Max     0.041069927 RMS     0.024391200

 GradGradGradGradGradGradGradGradGradGradGradGradGradGradGradGradGradGrad
 Berny optimization.
 FormGI is forming the generalized inverse of G from B-inverse, IUseBI=4.
 Internal  Forces:  Max     0.081441407 RMS     0.050720969
 Search for a local minimum.
 Step number   1 out of a maximum of   20
 All quantities printed in internal units (Hartrees-Bohrs-Radians)
 Mixed Optimization -- RFO/linear search
 Second derivative matrix not updated -- first step.
 The second derivative matrix:
                          R1        R2        A1
           R1           1.05156
           R2           0.00000   1.05156
           A1           0.00000   0.00000   0.25000
 ITU=  0
     Eigenvalues ---    0.25000   1.05156   1.05156
 RFO step:  Lambda=-2.51165711D-02 EMin= 2.50000000D-01
 Linear search not attempted -- first point.
 Iteration  1 RMS(Cart)=  0.13584152 RMS(Int)=  0.05823385
 Iteration  2 RMS(Cart)=  0.05886182 RMS(Int)=  0.00235156
 Iteration  3 RMS(Cart)=  0.00234053 RMS(Int)=  0.00000029
 Iteration  4 RMS(Cart)=  0.00000028 RMS(Int)=  0.00000000
 ClnCor:  largest displacement from symmetrization is 1.28D-14 for atom     3.
 Variable       Old X    -DE/DX   Delta X   Delta X   Delta X     New X
                                 (Linear)    (Quad)   (Total)
    R1        2.26642   0.02329   0.00000   0.02163   0.02163   2.28806
    R2        2.26642   0.02329   0.00000   0.02163   0.02163   2.28806
    A1        2.15049   0.08144   0.00000   0.29603   0.29603   2.44651
         Item               Value     Threshold  Converged?
 Maximum Force            0.081441     0.000450     NO 
 RMS     Force            0.050721     0.000300     NO 
 Maximum Displacement     0.198963     0.001800     NO 
 RMS     Displacement     0.190593     0.001200     NO 
 Predicted change in Energy=-1.367053D-02
 GradGradGradGradGradGradGradGradGradGradGradGradGradGradGradGradGradGrad

                          Input orientation:                          
 ---------------------------------------------------------------------
 Center     Atomic      Atomic             Coordinates (Angstroms)
 Number     Number       Type             X           Y           Z
 ---------------------------------------------------------------------
      1          7           0        0.000000    0.000000   -0.291448
      2          8           0        0.000000   -1.138399    0.120928
      3          8           0        0.000000    1.138399    0.120928
 ---------------------------------------------------------------------
                    Distance matrix (angstroms):
                    1          2          3
     1  N    0.000000
     2  O    1.210788   0.000000
     3  O    1.210788   2.276799   0.000000
 Stoichiometry    NO2(2)
 Framework group  C2V[C2(N),SGV(O2)]
 Deg. of freedom     2
 Full point group                 C2V     NOp   4
 Largest Abelian subgroup         C2V     NOp   4
 Largest concise Abelian subgroup C2      NOp   2
                         Standard orientation:                         
 ---------------------------------------------------------------------
 Center     Atomic      Atomic             Coordinates (Angstroms)
 Number     Number       Type             X           Y           Z
 ---------------------------------------------------------------------
      1          7           0        0.000000    0.000000    0.286870
      2          8           0        0.000000    1.138399   -0.125506
      3          8           0        0.000000   -1.138399   -0.125506
 ---------------------------------------------------------------------
 Rotational constants (GHZ):    305.1303175     12.1903457     11.7220354
 Basis read from rwf:  (6D, 7F)
 There are    19 symmetry adapted cartesian basis functions of A1  symmetry.
 There are     5 symmetry adapted cartesian basis functions of A2  symmetry.
 There are     7 symmetry adapted cartesian basis functions of B1  symmetry.
 There are    14 symmetry adapted cartesian basis functions of B2  symmetry.
 There are    19 symmetry adapted basis functions of A1  symmetry.
 There are     5 symmetry adapted basis functions of A2  symmetry.
 There are     7 symmetry adapted basis functions of B1  symmetry.
 There are    14 symmetry adapted basis functions of B2  symmetry.
    45 basis functions,    84 primitive gaussians,    45 cartesian basis functions
    12 alpha electrons       11 beta electrons
       nuclear repulsion energy        63.8248034696 Hartrees.
 NAtoms=    3 NActive=    3 NUniq=    2 SFac= 2.25D+00 NAtFMM=   60 NAOKFM=F Big=F
 Integral buffers will be    131072 words long.
 Raffenetti 2 integral format.
 Two-electron integral symmetry is turned on.
 One-electron integrals computed using PRISM.
 NBasis=    45 RedAO= T EigKep=  5.71D-03  NBF=    19     5     7    14
 NBsUse=    45 1.00D-06 EigRej= -1.00D+00 NBFU=    19     5     7    14
 Initial guess from the checkpoint file:  "no2.chk"
 B after Tr=     0.000000    0.000000    0.000000
         Rot=    1.000000    0.000000    0.000000    0.000000 Ang=   0.00 deg.
 Initial guess orbital symmetries:
 Alpha Orbitals:
       Occupied  (B2) (A1) (A1) (A1) (B2) (A1) (A1) (B2) (B1) (A2)
                 (B2) (A1)
       Virtual   (A1) (A1) (A1) (A1) (A1) (A1) (A1) (A1) (A1) (A1)
                 (A1) (A1) (A1) (A2) (A2) (A2) (A2) (B1) (B1) (B1)
                 (B1) (B1) (B1) (B2) (B2) (B2) (B2) (B2) (B2) (B2)
                 (B2) (B2) (B2)
 Beta  Orbitals:
       Occupied  (B2) (A1) (A1) (A1) (B2) (A1) (B1) (B2) (A1) (A2)
                 (B2)
       Virtual   (A1) (A1) (A1) (A1) (A1) (A1) (A1) (A1) (A1) (A1)
                 (A1) (A1) (A1) (A1) (A2) (A2) (A2) (A2) (B1) (B1)
                 (B1) (B1) (B1) (B1) (B2) (B2) (B2) (B2) (B2) (B2)
                 (B2) (B2) (B2) (B2)
 Initial guess <Sx>= 0.0000 <Sy>= 0.0000 <Sz>= 0.5000 <S**2>= 0.7532 S= 0.5016
 ExpMin= 2.12D-01 ExpMax= 5.48D+03 ExpMxC= 8.25D+02 IAcc=1 IRadAn=         1 AccDes= 0.00D+00
 Harris functional with IExCor=  402 and IRadAn=       1 diagonalized for initial guess.
 HarFok:  IExCor=  402 AccDes= 0.00D+00 IRadAn=         1 IDoV= 1 UseB2=F ITyADJ=14
 ICtDFT=  3500011 ScaDFX=  1.000000  1.000000  1.000000  1.000000
 FoFCou: FMM=F IPFlag=           0 FMFlag=      100000 FMFlg1=           0
         NFxFlg=           0 DoJE=T BraDBF=F KetDBF=T FulRan=T
         wScrn=  0.000000 ICntrl=     500 IOpCl=  0 I1Cent=   200000004 NGrid=           0
         NMat0=    1 NMatS0=      1 NMatT0=    0 NMatD0=    1 NMtDS0=    0 NMtDT0=    0
 Petite list used in FoFCou.
 Keep R1 and R2 ints in memory in symmetry-blocked form, NReq=1416690.
 Requested convergence on RMS density matrix=1.00D-08 within  64 cycles.
 Requested convergence on MAX density matrix=1.00D-06.
 Requested convergence on             energy=1.00D-06.
 No special actions if energy rises.
 Integral accuracy reduced to 1.0D-05 until final iterations.
 Initial convergence to 1.0D-05 achieved.  Increase integral accuracy.
 SCF Done:  E(UB3LYP) =  -205.069777077     A.U. after   13 cycles
            NFock= 13  Conv=0.96D-08     -V/T= 2.0090
 <Sx>= 0.0000 <Sy>= 0.0000 <Sz>= 0.5000 <S**2>= 0.7532 S= 0.5016
 <L.S>= 0.000000000000E+00
 Annihilation of the first spin contaminant:
 S**2 before annihilation     0.7532,   after     0.7500
 QCSCF skips out because SCF is already converged.
 Calling FoFJK, ICntrl=      2127 FMM=F ISym2X=1 I1Cent= 0 IOpClX= 1 NMat=1 NMatS=1 NMatT=0.
 ***** Axes restored to original set *****
 -------------------------------------------------------------------
 Center     Atomic                   Forces (Hartrees/Bohr)
 Number     Number              X              Y              Z
 -------------------------------------------------------------------
      1        7           0.000000000    0.000000000   -0.019711593
      2        8           0.000000000    0.021546492    0.009855796
      3        8           0.000000000   -0.021546492    0.009855796
 -------------------------------------------------------------------
 Cartesian Forces:  Max     0.021546492 RMS     0.012958579

 GradGradGradGradGradGradGradGradGradGradGradGradGradGradGradGradGradGrad
 Berny optimization.
 Using GEDIIS/GDIIS optimizer.
 FormGI is forming the generalized inverse of G from B-inverse, IUseBI=4.
 Internal  Forces:  Max     0.037993122 RMS     0.025915268
 Search for a local minimum.
 Step number   2 out of a maximum of   20
 All quantities printed in internal units (Hartrees-Bohrs-Radians)
 Mixed Optimization -- RFO/linear search
 Update second derivatives using D2CorX and points    1    2
 DE= -4.85D-03 DEPred=-1.37D-02 R= 3.55D-01
 Trust test= 3.55D-01 RLast= 2.98D-01 DXMaxT set to 3.00D-01
 The second derivative matrix:
                          R1        R2        A1
           R1           1.07250
           R2           0.02095   1.07250
           A1           0.05587   0.05587   0.39529
 ITU=  0  0
 Use linear search instead of GDIIS.
     Eigenvalues ---    0.38646   1.05156   1.10228
 RFO step:  Lambda=-7.05180401D-06 EMin= 3.86464566D-01
 Quartic linear search produced a step of -0.38839.
 Iteration  1 RMS(Cart)=  0.07126963 RMS(Int)=  0.00304192
 Iteration  2 RMS(Cart)=  0.00279009 RMS(Int)=  0.00000036
 Iteration  3 RMS(Cart)=  0.00000040 RMS(Int)=  0.00000000
 ClnCor:  largest displacement from symmetrization is 1.31D-14 for atom     3.
 Variable       Old X    -DE/DX   Delta X   Delta X   Delta X     New X
                                 (Linear)    (Quad)   (Total)
    R1        2.28806  -0.01690  -0.00840  -0.00178  -0.01019   2.27787
    R2        2.28806  -0.01690  -0.00840  -0.00178  -0.01019   2.27787
    A1        2.44651  -0.03799  -0.11497   0.00120  -0.11377   2.33274
         Item               Value     Threshold  Converged?
 Maximum Force            0.037993     0.000450     NO 
 RMS     Force            0.025915     0.000300     NO 
 Maximum Displacement     0.078028     0.001800     NO 
 RMS     Displacement     0.072261     0.001200     NO 
 Predicted change in Energy=-1.865568D-03
 GradGradGradGradGradGradGradGradGradGradGradGradGradGradGradGradGradGrad

                          Input orientation:                          
 ---------------------------------------------------------------------
 Center     Atomic      Atomic             Coordinates (Angstroms)
 Number     Number       Type             X           Y           Z
 ---------------------------------------------------------------------
      1          7           0        0.000000    0.000000   -0.332739
      2          8           0        0.000000   -1.108156    0.141573
      3          8           0        0.000000    1.108156    0.141573
 ---------------------------------------------------------------------
                    Distance matrix (angstroms):
                    1          2          3
     1  N    0.000000
     2  O    1.205397   0.000000
     3  O    1.205397   2.216313   0.000000
 Stoichiometry    NO2(2)
 Framework group  C2V[C2(N),SGV(O2)]
 Deg. of freedom     2
 Full point group                 C2V     NOp   4
 Largest Abelian subgroup         C2V     NOp   4
 Largest concise Abelian subgroup C2      NOp   2
                         Standard orientation:                         
 ---------------------------------------------------------------------
 Center     Atomic      Atomic             Coordinates (Angstroms)
 Number     Number       Type             X           Y           Z
 ---------------------------------------------------------------------
      1          7           0        0.000000    0.000000    0.329956
      2          8           0        0.000000    1.108156   -0.144356
      3          8           0        0.000000   -1.108156   -0.144356
 ---------------------------------------------------------------------
 Rotational constants (GHZ):    230.6449678     12.8648040     12.1851468
 Basis read from rwf:  (6D, 7F)
 There are    19 symmetry adapted cartesian basis functions of A1  symmetry.
 There are     5 symmetry adapted cartesian basis functions of A2  symmetry.
 There are     7 symmetry adapted cartesian basis functions of B1  symmetry.
 There are    14 symmetry adapted cartesian basis functions of B2  symmetry.
 There are    19 symmetry adapted basis functions of A1  symmetry.
 There are     5 symmetry adapted basis functions of A2  symmetry.
 There are     7 symmetry adapted basis functions of B1  symmetry.
 There are    14 symmetry adapted basis functions of B2  symmetry.
    45 basis functions,    84 primitive gaussians,    45 cartesian basis functions
    12 alpha electrons       11 beta electrons
       nuclear repulsion energy        64.4496631425 Hartrees.
 NAtoms=    3 NActive=    3 NUniq=    2 SFac= 2.25D+00 NAtFMM=   60 NAOKFM=F Big=F
 Integral buffers will be    131072 words long.
 Raffenetti 2 integral format.
 Two-electron integral symmetry is turned on.
 One-electron integrals computed using PRISM.
 NBasis=    45 RedAO= T EigKep=  6.15D-03  NBF=    19     5     7    14
 NBsUse=    45 1.00D-06 EigRej= -1.00D+00 NBFU=    19     5     7    14
 Initial guess from the checkpoint file:  "no2.chk"
 B after Tr=     0.000000    0.000000    0.000000
         Rot=    1.000000    0.000000    0.000000    0.000000 Ang=   0.00 deg.
 Initial guess orbital symmetries:
 Alpha Orbitals:
       Occupied  (B2) (A1) (A1) (A1) (B2) (A1) (B2) (A1) (B1) (B2)
                 (A2) (A1)
       Virtual   (A1) (A1) (A1) (A1) (A1) (A1) (A1) (A1) (A1) (A1)
                 (A1) (A1) (A1) (A2) (A2) (A2) (A2) (B1) (B1) (B1)
                 (B1) (B1) (B1) (B2) (B2) (B2) (B2) (B2) (B2) (B2)
                 (B2) (B2) (B2)
 Beta  Orbitals:
       Occupied  (B2) (A1) (A1) (A1) (B2) (A1) (B1) (B2) (A1) (A2)
                 (B2)
       Virtual   (A1) (A1) (A1) (A1) (A1) (A1) (A1) (A1) (A1) (A1)
                 (A1) (A1) (A1) (A1) (A2) (A2) (A2) (A2) (B1) (B1)
                 (B1) (B1) (B1) (B1) (B2) (B2) (B2) (B2) (B2) (B2)
                 (B2) (B2) (B2) (B2)
 Initial guess <Sx>= 0.0000 <Sy>= 0.0000 <Sz>= 0.5000 <S**2>= 0.7534 S= 0.5017
 ExpMin= 2.12D-01 ExpMax= 5.48D+03 ExpMxC= 8.25D+02 IAcc=1 IRadAn=         1 AccDes= 0.00D+00
 Harris functional with IExCor=  402 and IRadAn=       1 diagonalized for initial guess.
 HarFok:  IExCor=  402 AccDes= 0.00D+00 IRadAn=         1 IDoV= 1 UseB2=F ITyADJ=14
 ICtDFT=  3500011 ScaDFX=  1.000000  1.000000  1.000000  1.000000
 FoFCou: FMM=F IPFlag=           0 FMFlag=      100000 FMFlg1=           0
         NFxFlg=           0 DoJE=T BraDBF=F KetDBF=T FulRan=T
         wScrn=  0.000000 ICntrl=     500 IOpCl=  0 I1Cent=   200000004 NGrid=           0
         NMat0=    1 NMatS0=      1 NMatT0=    0 NMatD0=    1 NMtDS0=    0 NMtDT0=    0
 Petite list used in FoFCou.
 Keep R1 and R2 ints in memory in symmetry-blocked form, NReq=1416690.
 Requested convergence on RMS density matrix=1.00D-08 within  64 cycles.
 Requested convergence on MAX density matrix=1.00D-06.
 Requested convergence on             energy=1.00D-06.
 No special actions if energy rises.
 Integral accuracy reduced to 1.0D-05 until final iterations.
 Initial convergence to 1.0D-05 achieved.  Increase integral accuracy.
 SCF Done:  E(UB3LYP) =  -205.072189747     A.U. after   13 cycles
            NFock= 13  Conv=0.80D-08     -V/T= 2.0087
 <Sx>= 0.0000 <Sy>= 0.0000 <Sz>= 0.5000 <S**2>= 0.7533 S= 0.5017
 <L.S>= 0.000000000000E+00
 Annihilation of the first spin contaminant:
 S**2 before annihilation     0.7533,   after     0.7500
 QCSCF skips out because SCF is already converged.
 Calling FoFJK, ICntrl=      2127 FMM=F ISym2X=1 I1Cent= 0 IOpClX= 1 NMat=1 NMatS=1 NMatT=0.
 ***** Axes restored to original set *****
 -------------------------------------------------------------------
 Center     Atomic                   Forces (Hartrees/Bohr)
 Number     Number              X              Y              Z
 -------------------------------------------------------------------
      1        7           0.000000000    0.000000000    0.003371119
      2        8           0.000000000    0.003172696   -0.001685559
      3        8           0.000000000   -0.003172696   -0.001685559
 -------------------------------------------------------------------
 Cartesian Forces:  Max     0.003371119 RMS     0.002032477

 GradGradGradGradGradGradGradGradGradGradGradGradGradGradGradGradGradGrad
 Berny optimization.
 Using GEDIIS/GDIIS optimizer.
 FormGI is forming the generalized inverse of G from B-inverse, IUseBI=4.
 Internal  Forces:  Max     0.003580002 RMS     0.002949770
 Search for a local minimum.
 Step number   3 out of a maximum of   20
 All quantities printed in internal units (Hartrees-Bohrs-Radians)
 Mixed Optimization -- RFO/linear search
 Update second derivatives using D2CorX and points    1    2    3
 DE= -2.41D-03 DEPred=-1.87D-03 R= 1.29D+00
 TightC=F SS=  1.41D+00  RLast= 1.15D-01 DXNew= 5.0454D-01 3.4404D-01
 Trust test= 1.29D+00 RLast= 1.15D-01 DXMaxT set to 3.44D-01
 The second derivative matrix:
                          R1        R2        A1
           R1           1.05491
           R2           0.00335   1.05491
           A1           0.02234   0.02234   0.33597
 ITU=  1  0  0
 Use linear search instead of GDIIS.
     Eigenvalues ---    0.33459   1.05156   1.05964
 RFO step:  Lambda=-2.62927939D-05 EMin= 3.34590774D-01
 Quartic linear search produced a step of -0.00099.
 Iteration  1 RMS(Cart)=  0.00250239 RMS(Int)=  0.00000260
 Iteration  2 RMS(Cart)=  0.00000309 RMS(Int)=  0.00000000
 Iteration  3 RMS(Cart)=  0.00000000 RMS(Int)=  0.00000000
 ClnCor:  largest displacement from symmetrization is 6.66D-16 for atom     1.
 Variable       Old X    -DE/DX   Delta X   Delta X   Delta X     New X
                                 (Linear)    (Quad)   (Total)
    R1        2.27787  -0.00358   0.00001  -0.00345  -0.00344   2.27444
    R2        2.27787  -0.00358   0.00001  -0.00345  -0.00344   2.27444
    A1        2.33274   0.00069   0.00011   0.00237   0.00249   2.33523
         Item               Value     Threshold  Converged?
 Maximum Force            0.003580     0.000450     NO 
 RMS     Force            0.002950     0.000300     NO 
 Maximum Displacement     0.002634     0.001800     NO 
 RMS     Displacement     0.002503     0.001200     NO 
 Predicted change in Energy=-1.315666D-05
 GradGradGradGradGradGradGradGradGradGradGradGradGradGradGradGradGradGrad

                          Input orientation:                          
 ---------------------------------------------------------------------
 Center     Atomic      Atomic             Coordinates (Angstroms)
 Number     Number       Type             X           Y           Z
 ---------------------------------------------------------------------
      1          7           0        0.000000    0.000000   -0.331345
      2          8           0        0.000000   -1.107073    0.140876
      3          8           0        0.000000    1.107073    0.140876
 ---------------------------------------------------------------------
                    Distance matrix (angstroms):
                    1          2          3
     1  N    0.000000
     2  O    1.203579   0.000000
     3  O    1.203579   2.214146   0.000000
 Stoichiometry    NO2(2)
 Framework group  C2V[C2(N),SGV(O2)]
 Deg. of freedom     2
 Full point group                 C2V     NOp   4
 Largest Abelian subgroup         C2V     NOp   4
 Largest concise Abelian subgroup C2      NOp   2
                         Standard orientation:                         
 ---------------------------------------------------------------------
 Center     Atomic      Atomic             Coordinates (Angstroms)
 Number     Number       Type             X           Y           Z
 ---------------------------------------------------------------------
      1          7           0        0.000000    0.000000    0.328502
      2          8           0        0.000000    1.107073   -0.143720
      3          8           0        0.000000   -1.107073   -0.143720
 ---------------------------------------------------------------------
 Rotational constants (GHZ):    232.6921084     12.8900008     12.2134364
 Basis read from rwf:  (6D, 7F)
 There are    19 symmetry adapted cartesian basis functions of A1  symmetry.
 There are     5 symmetry adapted cartesian basis functions of A2  symmetry.
 There are     7 symmetry adapted cartesian basis functions of B1  symmetry.
 There are    14 symmetry adapted cartesian basis functions of B2  symmetry.
 There are    19 symmetry adapted basis functions of A1  symmetry.
 There are     5 symmetry adapted basis functions of A2  symmetry.
 There are     7 symmetry adapted basis functions of B1  symmetry.
 There are    14 symmetry adapted basis functions of B2  symmetry.
    45 basis functions,    84 primitive gaussians,    45 cartesian basis functions
    12 alpha electrons       11 beta electrons
       nuclear repulsion energy        64.5388922542 Hartrees.
 NAtoms=    3 NActive=    3 NUniq=    2 SFac= 2.25D+00 NAtFMM=   60 NAOKFM=F Big=F
 Integral buffers will be    131072 words long.
 Raffenetti 2 integral format.
 Two-electron integral symmetry is turned on.
 One-electron integrals computed using PRISM.
 NBasis=    45 RedAO= T EigKep=  6.12D-03  NBF=    19     5     7    14
 NBsUse=    45 1.00D-06 EigRej= -1.00D+00 NBFU=    19     5     7    14
 Initial guess from the checkpoint file:  "no2.chk"
 B after Tr=     0.000000    0.000000    0.000000
         Rot=    1.000000    0.000000    0.000000    0.000000 Ang=   0.00 deg.
 Initial guess orbital symmetries:
 Alpha Orbitals:
       Occupied  (B2) (A1) (A1) (A1) (B2) (A1) (A1) (B2) (B1) (B2)
                 (A2) (A1)
       Virtual   (A1) (A1) (A1) (A1) (A1) (A1) (A1) (A1) (A1) (A1)
                 (A1) (A1) (A1) (A2) (A2) (A2) (A2) (B1) (B1) (B1)
                 (B1) (B1) (B1) (B2) (B2) (B2) (B2) (B2) (B2) (B2)
                 (B2) (B2) (B2)
 Beta  Orbitals:
       Occupied  (B2) (A1) (A1) (A1) (B2) (A1) (B1) (B2) (A1) (A2)
                 (B2)
       Virtual   (A1) (A1) (A1) (A1) (A1) (A1) (A1) (A1) (A1) (A1)
                 (A1) (A1) (A1) (A1) (A2) (A2) (A2) (A2) (B1) (B1)
                 (B1) (B1) (B1) (B1) (B2) (B2) (B2) (B2) (B2) (B2)
                 (B2) (B2) (B2) (B2)
 Initial guess <Sx>= 0.0000 <Sy>= 0.0000 <Sz>= 0.5000 <S**2>= 0.7533 S= 0.5017
 Keep R1 and R2 ints in memory in symmetry-blocked form, NReq=1416690.
 Requested convergence on RMS density matrix=1.00D-08 within  64 cycles.
 Requested convergence on MAX density matrix=1.00D-06.
 Requested convergence on             energy=1.00D-06.
 No special actions if energy rises.
 SCF Done:  E(UB3LYP) =  -205.072205546     A.U. after    9 cycles
            NFock=  9  Conv=0.61D-08     -V/T= 2.0086
 <Sx>= 0.0000 <Sy>= 0.0000 <Sz>= 0.5000 <S**2>= 0.7533 S= 0.5017
 <L.S>= 0.000000000000E+00
 Annihilation of the first spin contaminant:
 S**2 before annihilation     0.7533,   after     0.7500
 QCSCF skips out because SCF is already converged.
 Calling FoFJK, ICntrl=      2127 FMM=F ISym2X=1 I1Cent= 0 IOpClX= 1 NMat=1 NMatS=1 NMatT=0.
 ***** Axes restored to original set *****
 -------------------------------------------------------------------
 Center     Atomic                   Forces (Hartrees/Bohr)
 Number     Number              X              Y              Z
 -------------------------------------------------------------------
      1        7           0.000000000    0.000000000    0.000689705
      2        8           0.000000000    0.000614503   -0.000344852
      3        8           0.000000000   -0.000614503   -0.000344852
 -------------------------------------------------------------------
 Cartesian Forces:  Max     0.000689705 RMS     0.000403976

 GradGradGradGradGradGradGradGradGradGradGradGradGradGradGradGradGradGrad
 Berny optimization.
 Using GEDIIS/GDIIS optimizer.
 FormGI is forming the generalized inverse of G from B-inverse, IUseBI=4.
 Internal  Forces:  Max     0.000700532 RMS     0.000580647
 Search for a local minimum.
 Step number   4 out of a maximum of   20
 All quantities printed in internal units (Hartrees-Bohrs-Radians)
 Mixed Optimization -- En-DIIS/RFO-DIIS
 Update second derivatives using D2CorX and points    1    2    3    4
 DE= -1.58D-05 DEPred=-1.32D-05 R= 1.20D+00
 TightC=F SS=  1.41D+00  RLast= 5.46D-03 DXNew= 5.7861D-01 1.6373D-02
 Trust test= 1.20D+00 RLast= 5.46D-03 DXMaxT set to 3.44D-01
 The second derivative matrix:
                          R1        R2        A1
           R1           0.96119
           R2          -0.09037   0.96119
           A1           0.04520   0.04520   0.33127
 ITU=  1  1  0  0
 Use linear search instead of GDIIS.
     Eigenvalues ---    0.32380   0.87829   1.05156
 RFO step:  Lambda= 0.00000000D+00 EMin= 3.23802402D-01
 Quartic linear search produced a step of  0.24686.
 Iteration  1 RMS(Cart)=  0.00063151 RMS(Int)=  0.00000020
 Iteration  2 RMS(Cart)=  0.00000024 RMS(Int)=  0.00000000
 ClnCor:  largest displacement from symmetrization is 1.44D-14 for atom     3.
 Variable       Old X    -DE/DX   Delta X   Delta X   Delta X     New X
                                 (Linear)    (Quad)   (Total)
    R1        2.27444  -0.00070  -0.00085   0.00001  -0.00084   2.27360
    R2        2.27444  -0.00070  -0.00085   0.00001  -0.00084   2.27360
    A1        2.33523   0.00017   0.00061   0.00013   0.00074   2.33597
         Item               Value     Threshold  Converged?
 Maximum Force            0.000701     0.000450     NO 
 RMS     Force            0.000581     0.000300     NO 
 Maximum Displacement     0.000734     0.001800     YES
 RMS     Displacement     0.000632     0.001200     YES
 Predicted change in Energy=-6.559960D-07
 GradGradGradGradGradGradGradGradGradGradGradGradGradGradGradGradGradGrad

                          Input orientation:                          
 ---------------------------------------------------------------------
 Center     Atomic      Atomic             Coordinates (Angstroms)
 Number     Number       Type             X           Y           Z
 ---------------------------------------------------------------------
      1          7           0        0.000000    0.000000   -0.330956
      2          8           0        0.000000   -1.106840    0.140682
      3          8           0        0.000000    1.106840    0.140682
 ---------------------------------------------------------------------
                    Distance matrix (angstroms):
                    1          2          3
     1  N    0.000000
     2  O    1.203136   0.000000
     3  O    1.203136   2.213680   0.000000
 Stoichiometry    NO2(2)
 Framework group  C2V[C2(N),SGV(O2)]
 Deg. of freedom     2
 Full point group                 C2V     NOp   4
 Largest Abelian subgroup         C2V     NOp   4
 Largest concise Abelian subgroup C2      NOp   2
                         Standard orientation:                         
 ---------------------------------------------------------------------
 Center     Atomic      Atomic             Coordinates (Angstroms)
 Number     Number       Type             X           Y           Z
 ---------------------------------------------------------------------
      1          7           0        0.000000    0.000000    0.328096
      2          8           0        0.000000    1.106840   -0.143542
      3          8           0        0.000000   -1.106840   -0.143542
 ---------------------------------------------------------------------
 Rotational constants (GHZ):    233.2677521     12.8954254     12.2198898
 Basis read from rwf:  (6D, 7F)
 There are    19 symmetry adapted cartesian basis functions of A1  symmetry.
 There are     5 symmetry adapted cartesian basis functions of A2  symmetry.
 There are     7 symmetry adapted cartesian basis functions of B1  symmetry.
 There are    14 symmetry adapted cartesian basis functions of B2  symmetry.
 There are    19 symmetry adapted basis functions of A1  symmetry.
 There are     5 symmetry adapted basis functions of A2  symmetry.
 There are     7 symmetry adapted basis functions of B1  symmetry.
 There are    14 symmetry adapted basis functions of B2  symmetry.
    45 basis functions,    84 primitive gaussians,    45 cartesian basis functions
    12 alpha electrons       11 beta electrons
       nuclear repulsion energy        64.5602365158 Hartrees.
 NAtoms=    3 NActive=    3 NUniq=    2 SFac= 2.25D+00 NAtFMM=   60 NAOKFM=F Big=F
 Integral buffers will be    131072 words long.
 Raffenetti 2 integral format.
 Two-electron integral symmetry is turned on.
 One-electron integrals computed using PRISM.
 NBasis=    45 RedAO= T EigKep=  6.11D-03  NBF=    19     5     7    14
 NBsUse=    45 1.00D-06 EigRej= -1.00D+00 NBFU=    19     5     7    14
 Initial guess from the checkpoint file:  "no2.chk"
 B after Tr=     0.000000    0.000000    0.000000
         Rot=    1.000000    0.000000    0.000000    0.000000 Ang=   0.00 deg.
 Initial guess orbital symmetries:
 Alpha Orbitals:
       Occupied  (B2) (A1) (A1) (A1) (B2) (A1) (A1) (B2) (B1) (B2)
                 (A2) (A1)
       Virtual   (A1) (A1) (A1) (A1) (A1) (A1) (A1) (A1) (A1) (A1)
                 (A1) (A1) (A1) (A2) (A2) (A2) (A2) (B1) (B1) (B1)
                 (B1) (B1) (B1) (B2) (B2) (B2) (B2) (B2) (B2) (B2)
                 (B2) (B2) (B2)
 Beta  Orbitals:
       Occupied  (B2) (A1) (A1) (A1) (B2) (A1) (B1) (B2) (A1) (A2)
                 (B2)
       Virtual   (A1) (A1) (A1) (A1) (A1) (A1) (A1) (A1) (A1) (A1)
                 (A1) (A1) (A1) (A1) (A2) (A2) (A2) (A2) (B1) (B1)
                 (B1) (B1) (B1) (B1) (B2) (B2) (B2) (B2) (B2) (B2)
                 (B2) (B2) (B2) (B2)
 Initial guess <Sx>= 0.0000 <Sy>= 0.0000 <Sz>= 0.5000 <S**2>= 0.7533 S= 0.5016
 Keep R1 and R2 ints in memory in symmetry-blocked form, NReq=1416690.
 Requested convergence on RMS density matrix=1.00D-08 within  64 cycles.
 Requested convergence on MAX density matrix=1.00D-06.
 Requested convergence on             energy=1.00D-06.
 No special actions if energy rises.
 SCF Done:  E(UB3LYP) =  -205.072206197     A.U. after    8 cycles
            NFock=  8  Conv=0.53D-08     -V/T= 2.0086
 <Sx>= 0.0000 <Sy>= 0.0000 <Sz>= 0.5000 <S**2>= 0.7533 S= 0.5016
 <L.S>= 0.000000000000E+00
 Annihilation of the first spin contaminant:
 S**2 before annihilation     0.7533,   after     0.7500
 QCSCF skips out because SCF is already converged.
 Calling FoFJK, ICntrl=      2127 FMM=F ISym2X=1 I1Cent= 0 IOpClX= 1 NMat=1 NMatS=1 NMatT=0.
 ***** Axes restored to original set *****
 -------------------------------------------------------------------
 Center     Atomic                   Forces (Hartrees/Bohr)
 Number     Number              X              Y              Z
 -------------------------------------------------------------------
      1        7           0.000000000    0.000000000   -0.000000735
      2        8           0.000000000    0.000000798    0.000000367
      3        8           0.000000000   -0.000000798    0.000000367
 -------------------------------------------------------------------
 Cartesian Forces:  Max     0.000000798 RMS     0.000000481

 GradGradGradGradGradGradGradGradGradGradGradGradGradGradGradGradGradGrad
 Berny optimization.
 Using GEDIIS/GDIIS optimizer.
 FormGI is forming the generalized inverse of G from B-inverse, IUseBI=4.
 Internal  Forces:  Max     0.000001479 RMS     0.000000980
 Search for a local minimum.
 Step number   5 out of a maximum of   20
 All quantities printed in internal units (Hartrees-Bohrs-Radians)
 Mixed Optimization -- En-DIIS/RFO-DIIS
 Swapping is turned off.
 Update second derivatives using D2CorX and points    2    3    4    5
 DE= -6.51D-07 DEPred=-6.56D-07 R= 9.92D-01
 Trust test= 9.92D-01 RLast= 1.40D-03 DXMaxT set to 3.44D-01
 The second derivative matrix:
                          R1        R2        A1
           R1           0.96272
           R2          -0.08883   0.96272
           A1           0.04248   0.04248   0.33218
 ITU=  0  1  1  0
     Eigenvalues ---    0.32560   0.88047   1.05156
 En-DIIS/RFO-DIIS IScMMF=        0 using points:     5    4
 RFO step:  Lambda= 0.00000000D+00.
 DidBck=F Rises=F RFO-DIIS coefs:    0.99992    0.00008
 Iteration  1 RMS(Cart)=  0.00000281 RMS(Int)=  0.00000000
 Iteration  2 RMS(Cart)=  0.00000000 RMS(Int)=  0.00000000
 ClnCor:  largest displacement from symmetrization is 1.44D-15 for atom     3.
 Variable       Old X    -DE/DX   Delta X   Delta X   Delta X     New X
                                 (Linear)    (Quad)   (Total)
    R1        2.27360   0.00000   0.00000   0.00000   0.00000   2.27360
    R2        2.27360   0.00000   0.00000   0.00000   0.00000   2.27360
    A1        2.33597   0.00000   0.00000   0.00000   0.00000   2.33596
         Item               Value     Threshold  Converged?
 Maximum Force            0.000001     0.000450     YES
 RMS     Force            0.000001     0.000300     YES
 Maximum Displacement     0.000003     0.001800     YES
 RMS     Displacement     0.000003     0.001200     YES
 Predicted change in Energy=-3.478909D-12
 Optimization completed.
    -- Stationary point found.
                           ----------------------------
                           !   Optimized Parameters   !
                           ! (Angstroms and Degrees)  !
 --------------------------                            --------------------------
 ! Name  Definition              Value          Derivative Info.                !
 --------------------------------------------------------------------------------
 ! R1    R(1,2)                  1.2031         -DE/DX =    0.0                 !
 ! R2    R(1,3)                  1.2031         -DE/DX =    0.0                 !
 ! A1    A(2,1,3)              133.8411         -DE/DX =    0.0                 !
 --------------------------------------------------------------------------------
 GradGradGradGradGradGradGradGradGradGradGradGradGradGradGradGradGradGrad

                          Input orientation:                          
 ---------------------------------------------------------------------
 Center     Atomic      Atomic             Coordinates (Angstroms)
 Number     Number       Type             X           Y           Z
 ---------------------------------------------------------------------
      1          7           0        0.000000    0.000000   -0.330956
      2          8           0        0.000000   -1.106840    0.140682
      3          8           0        0.000000    1.106840    0.140682
 ---------------------------------------------------------------------
                    Distance matrix (angstroms):
                    1          2          3
     1  N    0.000000
     2  O    1.203136   0.000000
     3  O    1.203136   2.213680   0.000000
 Stoichiometry    NO2(2)
 Framework group  C2V[C2(N),SGV(O2)]
 Deg. of freedom     2
 Full point group                 C2V     NOp   4
 Largest Abelian subgroup         C2V     NOp   4
 Largest concise Abelian subgroup C2      NOp   2
                         Standard orientation:                         
 ---------------------------------------------------------------------
 Center     Atomic      Atomic             Coordinates (Angstroms)
 Number     Number       Type             X           Y           Z
 ---------------------------------------------------------------------
      1          7           0        0.000000    0.000000    0.328096
      2          8           0        0.000000    1.106840   -0.143542
      3          8           0        0.000000   -1.106840   -0.143542
 ---------------------------------------------------------------------
 Rotational constants (GHZ):    233.2677521     12.8954254     12.2198898

 **********************************************************************

            Population analysis using the SCF density.

 **********************************************************************

 Orbital symmetries:
 Alpha Orbitals:
       Occupied  (B2) (A1) (A1) (A1) (B2) (A1) (A1) (B2) (B1) (B2)
                 (A2) (A1)
       Virtual   (B1) (A1) (B2) (A1) (A1) (B2) (B1) (A1) (B2) (A2)
                 (A1) (B1) (B2) (A1) (A2) (B2) (B1) (A1) (B2) (A2)
                 (A1) (B1) (B2) (A1) (B1) (B2) (A1) (A2) (B2) (A1)
                 (A1) (B2) (A1)
 Beta  Orbitals:
       Occupied  (B2) (A1) (A1) (A1) (B2) (A1) (B1) (B2) (A1) (A2)
                 (B2)
       Virtual   (A1) (B1) (A1) (B2) (A1) (B2) (B1) (A1) (A1) (B2)
                 (A2) (A1) (B1) (B2) (A1) (A2) (B2) (B1) (A1) (B2)
                 (A2) (A1) (B2) (B1) (A1) (B1) (B2) (A1) (A2) (B2)
                 (A1) (A1) (B2) (A1)
 The electronic state is 2-A1.
 Alpha  occ. eigenvalues --  -19.26565 -19.26564 -14.58716  -1.28182  -1.13638
 Alpha  occ. eigenvalues --   -0.67824  -0.57495  -0.57203  -0.56498  -0.38154
 Alpha  occ. eigenvalues --   -0.37745  -0.28768
 Alpha virt. eigenvalues --   -0.09029   0.21021   0.36963   0.58381   0.59072
 Alpha virt. eigenvalues --    0.59287   0.61180   0.77973   0.82021   0.87939
 Alpha virt. eigenvalues --    0.88919   0.93811   0.95239   1.27333   1.37164
 Alpha virt. eigenvalues --    1.39005   1.39937   1.46787   1.71166   1.73076
 Alpha virt. eigenvalues --    1.81281   1.83232   1.83289   2.19674   2.32442
 Alpha virt. eigenvalues --    2.64152   2.69440   2.70398   2.77151   2.85835
 Alpha virt. eigenvalues --    3.40640   3.62605   3.70477
  Beta  occ. eigenvalues --  -19.25674 -19.25673 -14.57652  -1.26312  -1.11487
  Beta  occ. eigenvalues --   -0.64487  -0.55405  -0.54825  -0.52977  -0.36985
  Beta  occ. eigenvalues --   -0.34105
  Beta virt. eigenvalues --   -0.14307  -0.07380   0.22347   0.39535   0.59688
  Beta virt. eigenvalues --    0.59884   0.61971   0.62077   0.78557   0.83811
  Beta virt. eigenvalues --    0.88371   0.91486   0.94472   0.96901   1.28905
  Beta virt. eigenvalues --    1.37680   1.40290   1.42015   1.48847   1.72944
  Beta virt. eigenvalues --    1.74223   1.83403   1.84225   1.85522   2.21388
  Beta virt. eigenvalues --    2.33460   2.67029   2.71453   2.71489   2.78128
  Beta virt. eigenvalues --    2.87519   3.42442   3.63855   3.72447
          Condensed to atoms (all electrons):
               1          2          3
     1  N    6.025204   0.247067   0.247067
     2  O    0.247067   8.072514  -0.079250
     3  O    0.247067  -0.079250   8.072514
          Atomic-Atomic Spin Densities.
               1          2          3
     1  N    0.750834  -0.157139  -0.157139
     2  O   -0.157139   0.416549   0.022311
     3  O   -0.157139   0.022311   0.416549
 Mulliken charges and spin densities:
               1          2
     1  N    0.480662   0.436556
     2  O   -0.240331   0.281722
     3  O   -0.240331   0.281722
 Sum of Mulliken charges =   0.00000   1.00000
 Mulliken charges and spin densities with hydrogens summed into heavy atoms:
               1          2
     1  N    0.480662   0.436556
     2  O   -0.240331   0.281722
     3  O   -0.240331   0.281722
 Electronic spatial extent (au):  <R**2>=            109.0874
 Charge=              0.0000 electrons
 Dipole moment (field-independent basis, Debye):
    X=              0.0000    Y=              0.0000    Z=              0.3213  Tot=              0.3213
 Quadrupole moment (field-independent basis, Debye-Ang):
   XX=            -14.5503   YY=            -17.5907   ZZ=            -15.2324
   XY=              0.0000   XZ=              0.0000   YZ=              0.0000
 Traceless Quadrupole moment (field-independent basis, Debye-Ang):
   XX=              1.2408   YY=             -1.7996   ZZ=              0.5588
   XY=              0.0000   XZ=              0.0000   YZ=              0.0000
 Octapole moment (field-independent basis, Debye-Ang**2):
  XXX=              0.0000  YYY=              0.0000  ZZZ=             -0.7768  XYY=              0.0000
  XXY=              0.0000  XXZ=             -0.1446  XZZ=              0.0000  YZZ=              0.0000
  YYZ=             -0.3228  XYZ=              0.0000
 Hexadecapole moment (field-independent basis, Debye-Ang**3):
 XXXX=            -10.0751 YYYY=            -88.4416 ZZZZ=            -15.6338 XXXY=              0.0000
 XXXZ=              0.0000 YYYX=              0.0000 YYYZ=              0.0000 ZZZX=              0.0000
 ZZZY=              0.0000 XXYY=            -16.0283 XXZZ=             -4.2160 YYZZ=            -16.9117
 XXYZ=              0.0000 YYXZ=              0.0000 ZZXY=              0.0000
 N-N= 6.456023651581D+01 E-N=-6.112684293504D+02  KE= 2.033259971116D+02
 Symmetry A1   KE= 1.200697774580D+02
 Symmetry A2   KE= 5.000849862784D+00
 Symmetry B1   KE= 3.835731800148D+00
 Symmetry B2   KE= 7.441963799068D+01
                          Isotropic Fermi Contact Couplings
        Atom                 a.u.       MegaHertz       Gauss      10(-4) cm-1
     1  N(14)              0.46242     149.41123      53.31364      49.83822
     2  O(17)              0.06736     -40.83206     -14.56990     -13.62011
     3  O(17)              0.06736     -40.83206     -14.56990     -13.62011
 --------------------------------------------------------
       Center         ----  Spin Dipole Couplings  ----
                      3XX-RR        3YY-RR        3ZZ-RR
 --------------------------------------------------------
     1   Atom       -0.446962     -0.506882      0.953844
     2   Atom       -0.732491     -0.674970      1.407460
     3   Atom       -0.732491     -0.674970      1.407460
 --------------------------------------------------------
                        XY            XZ            YZ
 --------------------------------------------------------
     1   Atom        0.000000      0.000000      0.000000
     2   Atom        0.000000      0.000000     -0.288098
     3   Atom        0.000000      0.000000      0.288098
 --------------------------------------------------------


 ---------------------------------------------------------------------------------
              Anisotropic Spin Dipole Couplings in Principal Axis System
 ---------------------------------------------------------------------------------

       Atom             a.u.   MegaHertz   Gauss  10(-4) cm-1        Axes

              Baa    -0.5069   -19.549    -6.976    -6.521  0.0000  1.0000  0.0000
     1 N(14)  Bbb    -0.4470   -17.238    -6.151    -5.750  1.0000  0.0000  0.0000
              Bcc     0.9538    36.788    13.127    12.271  0.0000  0.0000  1.0000
 
              Baa    -0.7325    53.003    18.913    17.680  1.0000  0.0000  0.0000
     2 O(17)  Bbb    -0.7141    51.671    18.438    17.236  0.0000  0.9909  0.1346
              Bcc     1.4466  -104.674   -37.350   -34.915  0.0000 -0.1346  0.9909
 
              Baa    -0.7325    53.003    18.913    17.680  1.0000  0.0000  0.0000
     3 O(17)  Bbb    -0.7141    51.671    18.438    17.236  0.0000  0.9909 -0.1346
              Bcc     1.4466  -104.674   -37.350   -34.915  0.0000  0.1346  0.9909
 

 ---------------------------------------------------------------------------------

 1\1\GINC-GAMBA\FOpt\UB3LYP\Gen\N1O2(2)\IRIKURA\17-May-2017\0\\# B3LYP/
 GEN gfinput OPT FREQ scf=xqc 6D\\BEB step 1: geom and freqs for no2\\0
 ,2\N,0.,0.,-0.3309564098\O,0.,-1.1068398818,0.1406818249\O,0.,1.106839
 8818,0.1406818249\\Version=ES64L-G09RevD.01\State=2-A1\HF=-205.0722062
 \S2=0.753297\S2-1=0.\S2A=0.750007\RMSD=5.256e-09\RMSF=4.809e-07\Dipole
 =0.,0.,-0.1264122\Quadrupole=0.92251,-1.3379389,0.415429,0.,0.,0.\PG=C
 02V [C2(N1),SGV(O2)]\\@


 WHEN YOU REACH FOR THE STARS, YOU MAY NOT QUITE GET ONE,
 BUT YOU WON'T COME UP WITH A HANDFUL OF MUD, EITHER.

                                         -- LEO BURNETT (AD AGENCY HEAD)
 Job cpu time:       0 days  0 hours  1 minutes 34.9 seconds.
 File lengths (MBytes):  RWF=      5 Int=      0 D2E=      0 Chk=      1 Scr=      1
 Normal termination of Gaussian 09 at Wed May 17 13:46:02 2017.
 Link1:  Proceeding to internal job step number  2.
 ------------------------------------------------------------------
 #N Geom=AllCheck Guess=TCheck SCRF=Check GenChk UB3LYP/ChkBas Freq
 ------------------------------------------------------------------
 1/10=4,29=7,30=1,38=1,40=1/1,3;
 2/12=2,40=1/2;
 3/5=7,6=2,8=2,11=2,14=-4,16=1,24=10,25=1,30=1,67=1,70=2,71=2,74=-5,82=7,116=2,140=1/1,2,3;
 4/5=101/1;
 5/5=2,8=3,13=1,98=1/2,8;
 8/6=4,10=90,11=11/1;
 11/6=1,8=1,9=11,15=111,16=1/1,2,10;
 10/6=1/2;
 6/7=2,8=2,9=2,10=2,18=1,28=1/1;
 7/8=1,10=1,25=1/1,2,3,16;
 1/10=4,30=1/3;
 99//99;
 Structure from the checkpoint file:  "no2.chk"
 ----------------------------------
 BEB step 1: geom and freqs for no2
 ----------------------------------
 Charge =  0 Multiplicity = 2
 Redundant internal coordinates found in file.
 N,0,0.,0.,-0.3309564098
 O,0,0.,-1.1068398818,0.1406818249
 O,0,0.,1.1068398818,0.1406818249
 Recover connectivity data from disk.

 GradGradGradGradGradGradGradGradGradGradGradGradGradGradGradGradGradGrad
 Berny optimization.
 Initialization pass.
                           ----------------------------
                           !    Initial Parameters    !
                           ! (Angstroms and Degrees)  !
 --------------------------                            --------------------------
 ! Name  Definition              Value          Derivative Info.                !
 --------------------------------------------------------------------------------
 ! R1    R(1,2)                  1.2031         calculate D2E/DX2 analytically  !
 ! R2    R(1,3)                  1.2031         calculate D2E/DX2 analytically  !
 ! A1    A(2,1,3)              133.8411         calculate D2E/DX2 analytically  !
 --------------------------------------------------------------------------------
 Trust Radius=3.00D-01 FncErr=1.00D-07 GrdErr=1.00D-07
 Number of steps in this run=      2 maximum allowed number of steps=      2.
 GradGradGradGradGradGradGradGradGradGradGradGradGradGradGradGradGradGrad

                          Input orientation:                          
 ---------------------------------------------------------------------
 Center     Atomic      Atomic             Coordinates (Angstroms)
 Number     Number       Type             X           Y           Z
 ---------------------------------------------------------------------
      1          7           0        0.000000    0.000000   -0.330956
      2          8           0        0.000000   -1.106840    0.140682
      3          8           0        0.000000    1.106840    0.140682
 ---------------------------------------------------------------------
                    Distance matrix (angstroms):
                    1          2          3
     1  N    0.000000
     2  O    1.203136   0.000000
     3  O    1.203136   2.213680   0.000000
 Stoichiometry    NO2(2)
 Framework group  C2V[C2(N),SGV(O2)]
 Deg. of freedom     2
 Full point group                 C2V     NOp   4
 Largest Abelian subgroup         C2V     NOp   4
 Largest concise Abelian subgroup C2      NOp   2
                         Standard orientation:                         
 ---------------------------------------------------------------------
 Center     Atomic      Atomic             Coordinates (Angstroms)
 Number     Number       Type             X           Y           Z
 ---------------------------------------------------------------------
      1          7           0        0.000000    0.000000    0.328096
      2          8           0        0.000000    1.106840   -0.143542
      3          8           0        0.000000   -1.106840   -0.143542
 ---------------------------------------------------------------------
 Rotational constants (GHZ):    233.2677521     12.8954254     12.2198898
 Basis read from chk: "no2.chk" (6D, 7F)
 AO basis set in the form of general basis input (Overlap normalization):
      1 0
 S   6 1.00       0.000000000000
      0.4173511460D+04  0.1834772160D-02
      0.6274579110D+03  0.1399462700D-01
      0.1429020930D+03  0.6858655181D-01
      0.4023432930D+02  0.2322408730D+00
      0.1282021290D+02  0.4690699481D+00
      0.4390437010D+01  0.3604551991D+00
 SP   3 1.00       0.000000000000
      0.1162636186D+02 -0.1149611817D+00  0.6757974388D-01
      0.2716279807D+01 -0.1691174786D+00  0.3239072959D+00
      0.7722183966D+00  0.1145851947D+01  0.7408951398D+00
 SP   1 1.00       0.000000000000
      0.2120314975D+00  0.1000000000D+01  0.1000000000D+01
 D   1 1.00       0.000000000000
      0.8000000000D+00  0.1000000000D+01
 ****
      2 0
 S   6 1.00       0.000000000000
      0.5484671660D+04  0.1831074430D-02
      0.8252349460D+03  0.1395017220D-01
      0.1880469580D+03  0.6844507810D-01
      0.5296450000D+02  0.2327143360D+00
      0.1689757040D+02  0.4701928980D+00
      0.5799635340D+01  0.3585208530D+00
 SP   3 1.00       0.000000000000
      0.1553961625D+02 -0.1107775495D+00  0.7087426823D-01
      0.3599933586D+01 -0.1480262627D+00  0.3397528391D+00
      0.1013761750D+01  0.1130767015D+01  0.7271585773D+00
 SP   1 1.00       0.000000000000
      0.2700058226D+00  0.1000000000D+01  0.1000000000D+01
 D   1 1.00       0.000000000000
      0.8000000000D+00  0.1000000000D+01
 ****
      3 0
 S   6 1.00       0.000000000000
      0.5484671660D+04  0.1831074430D-02
      0.8252349460D+03  0.1395017220D-01
      0.1880469580D+03  0.6844507810D-01
      0.5296450000D+02  0.2327143360D+00
      0.1689757040D+02  0.4701928980D+00
      0.5799635340D+01  0.3585208530D+00
 SP   3 1.00       0.000000000000
      0.1553961625D+02 -0.1107775495D+00  0.7087426823D-01
      0.3599933586D+01 -0.1480262627D+00  0.3397528391D+00
      0.1013761750D+01  0.1130767015D+01  0.7271585773D+00
 SP   1 1.00       0.000000000000
      0.2700058226D+00  0.1000000000D+01  0.1000000000D+01
 D   1 1.00       0.000000000000
      0.8000000000D+00  0.1000000000D+01
 ****

 There are    19 symmetry adapted cartesian basis functions of A1  symmetry.
 There are     5 symmetry adapted cartesian basis functions of A2  symmetry.
 There are     7 symmetry adapted cartesian basis functions of B1  symmetry.
 There are    14 symmetry adapted cartesian basis functions of B2  symmetry.
 There are    19 symmetry adapted basis functions of A1  symmetry.
 There are     5 symmetry adapted basis functions of A2  symmetry.
 There are     7 symmetry adapted basis functions of B1  symmetry.
 There are    14 symmetry adapted basis functions of B2  symmetry.
    45 basis functions,    84 primitive gaussians,    45 cartesian basis functions
    12 alpha electrons       11 beta electrons
       nuclear repulsion energy        64.5602365158 Hartrees.
 NAtoms=    3 NActive=    3 NUniq=    2 SFac= 2.25D+00 NAtFMM=   60 NAOKFM=F Big=F
 Integral buffers will be    131072 words long.
 Raffenetti 2 integral format.
 Two-electron integral symmetry is turned on.
 One-electron integrals computed using PRISM.
 NBasis=    45 RedAO= T EigKep=  6.11D-03  NBF=    19     5     7    14
 NBsUse=    45 1.00D-06 EigRej= -1.00D+00 NBFU=    19     5     7    14
 Initial guess from the checkpoint file:  "no2.chk"
 B after Tr=     0.000000    0.000000    0.000000
         Rot=    1.000000    0.000000    0.000000    0.000000 Ang=   0.00 deg.
 Initial guess orbital symmetries:
 Alpha Orbitals:
       Occupied  (B2) (A1) (A1) (A1) (B2) (A1) (A1) (B2) (B1) (B2)
                 (A2) (A1)
       Virtual   (B1) (A1) (B2) (A1) (A1) (B2) (B1) (A1) (B2) (A2)
                 (A1) (B1) (B2) (A1) (A2) (B2) (B1) (A1) (B2) (A2)
                 (A1) (B1) (B2) (A1) (B1) (B2) (A1) (A2) (B2) (A1)
                 (A1) (B2) (A1)
 Beta  Orbitals:
       Occupied  (B2) (A1) (A1) (A1) (B2) (A1) (B1) (B2) (A1) (A2)
                 (B2)
       Virtual   (A1) (B1) (A1) (B2) (A1) (B2) (B1) (A1) (A1) (B2)
                 (A2) (A1) (B1) (B2) (A1) (A2) (B2) (B1) (A1) (B2)
                 (A2) (A1) (B2) (B1) (A1) (B1) (B2) (A1) (A2) (B2)
                 (A1) (A1) (B2) (A1)
 Initial guess <Sx>= 0.0000 <Sy>= 0.0000 <Sz>= 0.5000 <S**2>= 0.7533 S= 0.5016
 Keep R1 and R2 ints in memory in symmetry-blocked form, NReq=1416690.
 Requested convergence on RMS density matrix=1.00D-08 within  64 cycles.
 Requested convergence on MAX density matrix=1.00D-06.
 Requested convergence on             energy=1.00D-06.
 No special actions if energy rises.
 SCF Done:  E(UB3LYP) =  -205.072206197     A.U. after    1 cycles
            NFock=  1  Conv=0.10D-08     -V/T= 2.0086
 <Sx>= 0.0000 <Sy>= 0.0000 <Sz>= 0.5000 <S**2>= 0.7533 S= 0.5016
 <L.S>= 0.000000000000E+00
 Annihilation of the first spin contaminant:
 S**2 before annihilation     0.7533,   after     0.7500
 QCSCF skips out because SCF is already converged.
 DoSCS=F DFT=T ScalE2(SS,OS)=  1.000000  1.000000
 Range of M.O.s used for correlation:     1    45
 NBasis=    45 NAE=    12 NBE=    11 NFC=     0 NFV=     0
 NROrb=     45 NOA=    12 NOB=    11 NVA=    33 NVB=    34
 Symmetrizing basis deriv contribution to polar:
 IMax=3 JMax=2 DiffMx= 0.00D+00
 G2DrvN: will do     4 centers at a time, making    1 passes.
 Calling FoFCou, ICntrl=  3107 FMM=F I1Cent=   0 AccDes= 0.00D+00.
 End of G2Drv F.D. properties file   721 does not exist.
 End of G2Drv F.D. properties file   722 does not exist.
 End of G2Drv F.D. properties file   788 does not exist.
          IDoAtm=111
          Differentiating once with respect to electric field.
                with respect to dipole field.
          Differentiating once with respect to nuclear coordinates.
 Keep R1 and R2 ints in memory in symmetry-blocked form, NReq=1403763.
          There are     9 degrees of freedom in the 1st order CPHF.  IDoFFX=4 NUNeed=     9.
      9 vectors produced by pass  0 Test12= 8.56D-15 1.11D-08 XBig12= 1.00D+02 6.15D+00.
 AX will form     9 AO Fock derivatives at one time.
      9 vectors produced by pass  1 Test12= 8.56D-15 1.11D-08 XBig12= 4.44D+01 1.66D+00.
      9 vectors produced by pass  2 Test12= 8.56D-15 1.11D-08 XBig12= 2.50D+00 7.81D-01.
      9 vectors produced by pass  3 Test12= 8.56D-15 1.11D-08 XBig12= 5.19D-02 1.12D-01.
      9 vectors produced by pass  4 Test12= 8.56D-15 1.11D-08 XBig12= 4.16D-03 3.34D-02.
      9 vectors produced by pass  5 Test12= 8.56D-15 1.11D-08 XBig12= 6.96D-05 2.12D-03.
      9 vectors produced by pass  6 Test12= 8.56D-15 1.11D-08 XBig12= 2.74D-07 1.47D-04.
      6 vectors produced by pass  7 Test12= 8.56D-15 1.11D-08 XBig12= 1.50D-09 1.07D-05.
      2 vectors produced by pass  8 Test12= 8.56D-15 1.11D-08 XBig12= 3.82D-12 4.69D-07.
      1 vectors produced by pass  9 Test12= 8.56D-15 1.11D-08 XBig12= 1.29D-14 2.57D-08.
 InvSVY:  IOpt=1 It=  1 EMax= 1.78D-15
 Solved reduced A of dimension    72 with     9 vectors.
 Isotropic polarizability for W=    0.000000       13.38 Bohr**3.
 End of Minotr F.D. properties file   721 does not exist.
 End of Minotr F.D. properties file   722 does not exist.
 End of Minotr F.D. properties file   788 does not exist.

 **********************************************************************

            Population analysis using the SCF density.

 **********************************************************************

 Orbital symmetries:
 Alpha Orbitals:
       Occupied  (B2) (A1) (A1) (A1) (B2) (A1) (A1) (B2) (B1) (B2)
                 (A2) (A1)
       Virtual   (B1) (A1) (B2) (A1) (A1) (B2) (B1) (A1) (B2) (A2)
                 (A1) (B1) (B2) (A1) (A2) (B2) (B1) (A1) (B2) (A2)
                 (A1) (B1) (B2) (A1) (B1) (B2) (A1) (A2) (B2) (A1)
                 (A1) (B2) (A1)
 Beta  Orbitals:
       Occupied  (B2) (A1) (A1) (A1) (B2) (A1) (B1) (B2) (A1) (A2)
                 (B2)
       Virtual   (A1) (B1) (A1) (B2) (A1) (B2) (B1) (A1) (A1) (B2)
                 (A2) (A1) (B1) (B2) (A1) (A2) (B2) (B1) (A1) (B2)
                 (A2) (A1) (B2) (B1) (A1) (B1) (B2) (A1) (A2) (B2)
                 (A1) (A1) (B2) (A1)
 The electronic state is 2-A1.
 Alpha  occ. eigenvalues --  -19.26565 -19.26564 -14.58716  -1.28182  -1.13638
 Alpha  occ. eigenvalues --   -0.67824  -0.57495  -0.57203  -0.56498  -0.38154
 Alpha  occ. eigenvalues --   -0.37745  -0.28768
 Alpha virt. eigenvalues --   -0.09029   0.21021   0.36963   0.58381   0.59072
 Alpha virt. eigenvalues --    0.59287   0.61180   0.77973   0.82021   0.87939
 Alpha virt. eigenvalues --    0.88919   0.93811   0.95239   1.27333   1.37164
 Alpha virt. eigenvalues --    1.39005   1.39937   1.46787   1.71166   1.73076
 Alpha virt. eigenvalues --    1.81281   1.83232   1.83289   2.19674   2.32442
 Alpha virt. eigenvalues --    2.64152   2.69440   2.70398   2.77151   2.85835
 Alpha virt. eigenvalues --    3.40640   3.62605   3.70477
  Beta  occ. eigenvalues --  -19.25674 -19.25673 -14.57652  -1.26312  -1.11487
  Beta  occ. eigenvalues --   -0.64487  -0.55405  -0.54825  -0.52977  -0.36985
  Beta  occ. eigenvalues --   -0.34105
  Beta virt. eigenvalues --   -0.14307  -0.07380   0.22347   0.39535   0.59688
  Beta virt. eigenvalues --    0.59884   0.61971   0.62077   0.78557   0.83811
  Beta virt. eigenvalues --    0.88371   0.91486   0.94472   0.96901   1.28905
  Beta virt. eigenvalues --    1.37680   1.40290   1.42015   1.48847   1.72944
  Beta virt. eigenvalues --    1.74223   1.83403   1.84225   1.85522   2.21388
  Beta virt. eigenvalues --    2.33460   2.67029   2.71453   2.71489   2.78128
  Beta virt. eigenvalues --    2.87519   3.42442   3.63855   3.72447
          Condensed to atoms (all electrons):
               1          2          3
     1  N    6.025204   0.247067   0.247067
     2  O    0.247067   8.072514  -0.079250
     3  O    0.247067  -0.079250   8.072514
          Atomic-Atomic Spin Densities.
               1          2          3
     1  N    0.750834  -0.157139  -0.157139
     2  O   -0.157139   0.416549   0.022311
     3  O   -0.157139   0.022311   0.416549
 Mulliken charges and spin densities:
               1          2
     1  N    0.480661   0.436556
     2  O   -0.240331   0.281722
     3  O   -0.240331   0.281722
 Sum of Mulliken charges =   0.00000   1.00000
 Mulliken charges and spin densities with hydrogens summed into heavy atoms:
               1          2
     1  N    0.480661   0.436556
     2  O   -0.240331   0.281722
     3  O   -0.240331   0.281722
 APT charges:
               1
     1  N    0.717136
     2  O   -0.358568
     3  O   -0.358568
 Sum of APT charges =   0.00000
 APT charges with hydrogens summed into heavy atoms:
               1
     1  N    0.717136
     2  O   -0.358568
     3  O   -0.358568
 Electronic spatial extent (au):  <R**2>=            109.0874
 Charge=              0.0000 electrons
 Dipole moment (field-independent basis, Debye):
    X=              0.0000    Y=              0.0000    Z=              0.3213  Tot=              0.3213
 Quadrupole moment (field-independent basis, Debye-Ang):
   XX=            -14.5503   YY=            -17.5907   ZZ=            -15.2324
   XY=              0.0000   XZ=              0.0000   YZ=              0.0000
 Traceless Quadrupole moment (field-independent basis, Debye-Ang):
   XX=              1.2408   YY=             -1.7996   ZZ=              0.5588
   XY=              0.0000   XZ=              0.0000   YZ=              0.0000
 Octapole moment (field-independent basis, Debye-Ang**2):
  XXX=              0.0000  YYY=              0.0000  ZZZ=             -0.7768  XYY=              0.0000
  XXY=              0.0000  XXZ=             -0.1446  XZZ=              0.0000  YZZ=              0.0000
  YYZ=             -0.3228  XYZ=              0.0000
 Hexadecapole moment (field-independent basis, Debye-Ang**3):
 XXXX=            -10.0751 YYYY=            -88.4416 ZZZZ=            -15.6338 XXXY=              0.0000
 XXXZ=              0.0000 YYYX=              0.0000 YYYZ=              0.0000 ZZZX=              0.0000
 ZZZY=              0.0000 XXYY=            -16.0283 XXZZ=             -4.2160 YYZZ=            -16.9117
 XXYZ=              0.0000 YYXZ=              0.0000 ZZXY=              0.0000
 N-N= 6.456023651581D+01 E-N=-6.112684292581D+02  KE= 2.033259970506D+02
 Symmetry A1   KE= 1.200697774300D+02
 Symmetry A2   KE= 5.000849856158D+00
 Symmetry B1   KE= 3.835731791580D+00
 Symmetry B2   KE= 7.441963797293D+01
  Exact polarizability:   7.080   0.000  24.077   0.000   0.000   8.972
 Approx polarizability:   9.717   0.000  60.783   0.000   0.000  13.271
                          Isotropic Fermi Contact Couplings
        Atom                 a.u.       MegaHertz       Gauss      10(-4) cm-1
     1  N(14)              0.46242     149.41124      53.31365      49.83823
     2  O(17)              0.06736     -40.83206     -14.56989     -13.62011
     3  O(17)              0.06736     -40.83206     -14.56989     -13.62011
 --------------------------------------------------------
       Center         ----  Spin Dipole Couplings  ----
                      3XX-RR        3YY-RR        3ZZ-RR
 --------------------------------------------------------
     1   Atom       -0.446962     -0.506882      0.953844
     2   Atom       -0.732491     -0.674970      1.407461
     3   Atom       -0.732491     -0.674970      1.407461
 --------------------------------------------------------
                        XY            XZ            YZ
 --------------------------------------------------------
     1   Atom        0.000000      0.000000      0.000000
     2   Atom        0.000000      0.000000     -0.288098
     3   Atom        0.000000      0.000000      0.288098
 --------------------------------------------------------


 ---------------------------------------------------------------------------------
              Anisotropic Spin Dipole Couplings in Principal Axis System
 ---------------------------------------------------------------------------------

       Atom             a.u.   MegaHertz   Gauss  10(-4) cm-1        Axes

              Baa    -0.5069   -19.549    -6.976    -6.521  0.0000  1.0000  0.0000
     1 N(14)  Bbb    -0.4470   -17.238    -6.151    -5.750  1.0000  0.0000  0.0000
              Bcc     0.9538    36.788    13.127    12.271  0.0000  0.0000  1.0000
 
              Baa    -0.7325    53.003    18.913    17.680  1.0000  0.0000  0.0000
     2 O(17)  Bbb    -0.7141    51.671    18.438    17.236  0.0000  0.9909  0.1346
              Bcc     1.4466  -104.674   -37.350   -34.915  0.0000 -0.1346  0.9909
 
              Baa    -0.7325    53.003    18.913    17.680  1.0000  0.0000  0.0000
     3 O(17)  Bbb    -0.7141    51.671    18.438    17.236  0.0000  0.9909 -0.1346
              Bcc     1.4466  -104.674   -37.350   -34.915  0.0000  0.1346  0.9909
 

 ---------------------------------------------------------------------------------

 Calling FoFJK, ICntrl=    100127 FMM=F ISym2X=1 I1Cent= 0 IOpClX= 1 NMat=1 NMatS=1 NMatT=0.
 Full mass-weighted force constant matrix:
 Low frequencies ---  -27.5873  -12.0042   -6.3672   -0.0016   -0.0014    0.0006
 Low frequencies ---  748.9638 1404.1701 1720.7153
 Diagonal vibrational polarizability:
        0.0000000       2.9403210       0.3831573
 Harmonic frequencies (cm**-1), IR intensities (KM/Mole), Raman scattering
 activities (A**4/AMU), depolarization ratios for plane and unpolarized
 incident light, reduced masses (AMU), force constants (mDyne/A),
 and normal coordinates:
                      1                      2                      3
                     A1                     A1                     B2
 Frequencies --    748.9638              1404.1701              1720.7153
 Red. masses --     15.1676                15.3151                14.6239
 Frc consts  --      5.0129                17.7914                25.5112
 IR Inten    --      7.8640                 0.4313               323.5040
  Atom  AN      X      Y      Z        X      Y      Z        X      Y      Z
     1   7     0.00   0.00   0.64     0.00   0.00   0.58     0.00   0.83   0.00
     2   8     0.00  -0.46  -0.28     0.00   0.51  -0.26     0.00  -0.36   0.15
     3   8     0.00   0.46  -0.28     0.00  -0.51  -0.26     0.00  -0.36  -0.15

 -------------------
 - Thermochemistry -
 -------------------
 Temperature   298.150 Kelvin.  Pressure   1.00000 Atm.
 Atom     1 has atomic number  7 and mass  14.00307
 Atom     2 has atomic number  8 and mass  15.99491
 Atom     3 has atomic number  8 and mass  15.99491
 Molecular mass:    45.99290 amu.
 Principal axes and moments of inertia in atomic units:
                           1         2         3
     Eigenvalues --     7.73678 139.95205 147.68883
           X            0.00000   0.00000   1.00000
           Y            1.00000   0.00000   0.00000
           Z            0.00000   1.00000   0.00000
 This molecule is an asymmetric top.
 Rotational symmetry number  2.
 Rotational temperatures (Kelvin)     11.19507     0.61888     0.58646
 Rotational constants (GHZ):         233.26775    12.89543    12.21989
 Zero-point vibrational energy      23170.8 (Joules/Mol)
                                    5.53795 (Kcal/Mol)
 Vibrational temperatures:   1077.59  2020.29  2475.72
          (Kelvin)
 
 Zero-point correction=                           0.008825 (Hartree/Particle)
 Thermal correction to Energy=                    0.011762
 Thermal correction to Enthalpy=                  0.012706
 Thermal correction to Gibbs Free Energy=        -0.014561
 Sum of electronic and zero-point Energies=           -205.063381
 Sum of electronic and thermal Energies=              -205.060445
 Sum of electronic and thermal Enthalpies=            -205.059500
 Sum of electronic and thermal Free Energies=         -205.086767
 
                     E (Thermal)             CV                S
                      KCal/Mol        Cal/Mol-Kelvin    Cal/Mol-Kelvin
 Total                    7.380              6.838             57.387
 Electronic               0.000              0.000              1.377
 Translational            0.889              2.981             37.403
 Rotational               0.889              2.981             18.331
 Vibrational              5.603              0.877              0.275
                       Q            Log10(Q)             Ln(Q)
 Total Bot       0.498203D+07          6.697406         15.421348
 Total V=0       0.571141D+11         10.756744         24.768318
 Vib (Bot)       0.897687D-04         -4.046875         -9.318274
 Vib (V=0)       0.102911D+01          0.012462          0.028695
 Electronic      0.200000D+01          0.301030          0.693147
 Translational   0.122600D+08          7.088491         16.321855
 Rotational      0.226339D+04          3.354760          7.724620
 ***** Axes restored to original set *****
 -------------------------------------------------------------------
 Center     Atomic                   Forces (Hartrees/Bohr)
 Number     Number              X              Y              Z
 -------------------------------------------------------------------
      1        7           0.000000000    0.000000000   -0.000000733
      2        8           0.000000000    0.000000793    0.000000366
      3        8           0.000000000   -0.000000793    0.000000366
 -------------------------------------------------------------------
 Cartesian Forces:  Max     0.000000793 RMS     0.000000479
 FormGI is forming the generalized inverse of G from B-inverse, IUseBI=4.

 GradGradGradGradGradGradGradGradGradGradGradGradGradGradGradGradGradGrad
 Berny optimization.
 Internal  Forces:  Max     0.000001473 RMS     0.000000975
 Search for a local minimum.
 Step number   1 out of a maximum of    2
 All quantities printed in internal units (Hartrees-Bohrs-Radians)
 Second derivative matrix not updated -- analytic derivatives used.
 The second derivative matrix:
                          R1        R2        A1
           R1           0.74981
           R2           0.13885   0.74981
           A1           0.05748   0.05748   0.36628
 ITU=  0
     Eigenvalues ---    0.35392   0.61097   0.90101
 Angle between quadratic step and forces=  20.94 degrees.
 Linear search not attempted -- first point.
 Iteration  1 RMS(Cart)=  0.00000252 RMS(Int)=  0.00000000
 Iteration  2 RMS(Cart)=  0.00000000 RMS(Int)=  0.00000000
 ClnCor:  largest displacement from symmetrization is 5.73D-15 for atom     3.
 Variable       Old X    -DE/DX   Delta X   Delta X   Delta X     New X
                                 (Linear)    (Quad)   (Total)
    R1        2.27360   0.00000   0.00000   0.00000   0.00000   2.27360
    R2        2.27360   0.00000   0.00000   0.00000   0.00000   2.27360
    A1        2.33597   0.00000   0.00000   0.00000   0.00000   2.33596
         Item               Value     Threshold  Converged?
 Maximum Force            0.000001     0.000450     YES
 RMS     Force            0.000001     0.000300     YES
 Maximum Displacement     0.000003     0.001800     YES
 RMS     Displacement     0.000003     0.001200     YES
 Predicted change in Energy=-3.104447D-12
 Optimization completed.
    -- Stationary point found.
                           ----------------------------
                           !   Optimized Parameters   !
                           ! (Angstroms and Degrees)  !
 --------------------------                            --------------------------
 ! Name  Definition              Value          Derivative Info.                !
 --------------------------------------------------------------------------------
 ! R1    R(1,2)                  1.2031         -DE/DX =    0.0                 !
 ! R2    R(1,3)                  1.2031         -DE/DX =    0.0                 !
 ! A1    A(2,1,3)              133.8411         -DE/DX =    0.0                 !
 --------------------------------------------------------------------------------
 GradGradGradGradGradGradGradGradGradGradGradGradGradGradGradGradGradGrad

 1\1\GINC-GAMBA\Freq\UB3LYP\Gen\N1O2(2)\IRIKURA\17-May-2017\0\\#N Geom=
 AllCheck Guess=TCheck SCRF=Check GenChk UB3LYP/ChkBas Freq\\BEB step 1
 : geom and freqs for no2\\0,2\N,0.,0.,-0.3309564098\O,0.,-1.1068398818
 ,0.1406818249\O,0.,1.1068398818,0.1406818249\\Version=ES64L-G09RevD.01
 \State=2-A1\HF=-205.0722062\S2=0.753297\S2-1=0.\S2A=0.750007\RMSD=1.02
 8e-09\RMSF=4.786e-07\ZeroPoint=0.0088253\Thermal=0.0117616\Dipole=0.,0
 .,-0.1264121\DipoleDeriv=0.1418401,0.,0.,0.,1.7574724,0.,0.,0.,0.25209
 62,-0.0709201,0.,0.,0.,-0.8787362,-0.1259617,0.,0.3442826,-0.1260481,-
 0.0709201,0.,0.,0.,-0.8787362,0.1259617,0.,-0.3442826,-0.1260481\Polar
 =7.0802728,0.,24.0771302,0.,0.,8.9723394\PG=C02V [C2(N1),SGV(O2)]\NIma
 g=0\\-0.00028051,0.,1.03413709,0.,0.,0.44005239,0.00014026,0.,0.,-0.00
 011374,0.,-0.51706855,0.23434614,0.,0.66370618,0.,0.22036711,-0.220026
 19,0.,-0.22735662,0.15695878,0.00014026,0.,0.,-0.00002652,0.,0.,-0.000
 11374,0.,-0.51706855,-0.23434614,0.,-0.14663764,0.00698952,0.,0.663706
 18,0.,-0.22036711,-0.22002619,0.,-0.00698952,0.06306741,0.,0.22735662,
 0.15695878\\0.,0.,0.00000073,0.,-0.00000079,-0.00000037,0.,0.00000079,
 -0.00000037\\\@


 THE UNDERLYING PHYSICAL LAWS NECESSARY FOR THE 
 MATHEMATICAL THEORY OF A LARGE PART OF PHYSICS AND THE
 WHOLE OF CHEMISTRY ARE THUS COMPLETELY KNOWN, AND THE
 DIFFICULTY IS ONLY THAT THE EXACT APPLICATION OF THESE
 LAWS LEADS TO EQUATIONS MUCH TOO COMPLICATED 
 TO BE SOLUBLE.

                                        -- P. A. M. DIRAC, 1929
 Job cpu time:       0 days  0 hours  0 minutes 38.0 seconds.
 File lengths (MBytes):  RWF=      5 Int=      0 D2E=      0 Chk=      1 Scr=      1
 Normal termination of Gaussian 09 at Wed May 17 13:46:10 2017.
