 Entering Gaussian System, Link 0=g09
 Initial command:
 /usr/local/apps/g09/l1.exe "/wrk/irikura/Gau-28829.inp" -scrdir="/wrk/irikura/"
 Entering Link 1 = /usr/local/apps/g09/l1.exe PID=     28831.
  
 Copyright (c) 1988,1990,1992,1993,1995,1998,2003,2009,2013,
            Gaussian, Inc.  All Rights Reserved.
  
 This is part of the Gaussian(R) 09 program.  It is based on
 the Gaussian(R) 03 system (copyright 2003, Gaussian, Inc.),
 the Gaussian(R) 98 system (copyright 1998, Gaussian, Inc.),
 the Gaussian(R) 94 system (copyright 1995, Gaussian, Inc.),
 the Gaussian 92(TM) system (copyright 1992, Gaussian, Inc.),
 the Gaussian 90(TM) system (copyright 1990, Gaussian, Inc.),
 the Gaussian 88(TM) system (copyright 1988, Gaussian, Inc.),
 the Gaussian 86(TM) system (copyright 1986, Carnegie Mellon
 University), and the Gaussian 82(TM) system (copyright 1983,
 Carnegie Mellon University). Gaussian is a federally registered
 trademark of Gaussian, Inc.
  
 This software contains proprietary and confidential information,
 including trade secrets, belonging to Gaussian, Inc.
  
 This software is provided under written license and may be
 used, copied, transmitted, or stored only in accord with that
 written license.
  
 The following legend is applicable only to US Government
 contracts under FAR:
  
                    RESTRICTED RIGHTS LEGEND
  
 Use, reproduction and disclosure by the US Government is
 subject to restrictions as set forth in subparagraphs (a)
 and (c) of the Commercial Computer Software - Restricted
 Rights clause in FAR 52.227-19.
  
 Gaussian, Inc.
 340 Quinnipiac St., Bldg. 40, Wallingford CT 06492
  
  
 ---------------------------------------------------------------
 Warning -- This program may not be used in any manner that
 competes with the business of Gaussian, Inc. or will provide
 assistance to any competitor of Gaussian, Inc.  The licensee
 of this program is prohibited from giving any competitor of
 Gaussian, Inc. access to this program.  By using this program,
 the user acknowledges that Gaussian, Inc. is engaged in the
 business of creating and licensing software in the field of
 computational chemistry and represents and warrants to the
 licensee that it is not a competitor of Gaussian, Inc. and that
 it will not use this program in any manner prohibited above.
 ---------------------------------------------------------------
  

 Cite this work as:
 Gaussian 09, Revision D.01,
 M. J. Frisch, G. W. Trucks, H. B. Schlegel, G. E. Scuseria, 
 M. A. Robb, J. R. Cheeseman, G. Scalmani, V. Barone, B. Mennucci, 
 G. A. Petersson, H. Nakatsuji, M. Caricato, X. Li, H. P. Hratchian, 
 A. F. Izmaylov, J. Bloino, G. Zheng, J. L. Sonnenberg, M. Hada, 
 M. Ehara, K. Toyota, R. Fukuda, J. Hasegawa, M. Ishida, T. Nakajima, 
 Y. Honda, O. Kitao, H. Nakai, T. Vreven, J. A. Montgomery, Jr., 
 J. E. Peralta, F. Ogliaro, M. Bearpark, J. J. Heyd, E. Brothers, 
 K. N. Kudin, V. N. Staroverov, T. Keith, R. Kobayashi, J. Normand, 
 K. Raghavachari, A. Rendell, J. C. Burant, S. S. Iyengar, J. Tomasi, 
 M. Cossi, N. Rega, J. M. Millam, M. Klene, J. E. Knox, J. B. Cross, 
 V. Bakken, C. Adamo, J. Jaramillo, R. Gomperts, R. E. Stratmann, 
 O. Yazyev, A. J. Austin, R. Cammi, C. Pomelli, J. W. Ochterski, 
 R. L. Martin, K. Morokuma, V. G. Zakrzewski, G. A. Voth, 
 P. Salvador, J. J. Dannenberg, S. Dapprich, A. D. Daniels, 
 O. Farkas, J. B. Foresman, J. V. Ortiz, J. Cioslowski, 
 and D. J. Fox, Gaussian, Inc., Wallingford CT, 2013.
 
 ******************************************
 Gaussian 09:  ES64L-G09RevD.01 24-Apr-2013
                17-May-2017 
 ******************************************
 %chk=ch4.chk
 %nprocs=4
 Will use up to    4 processors via shared memory.
 %mem=1000mw
 ---------------------------------------------------------------
 # CCSD(T,maxcyc=100)/GEN gfinput geom=check scf=xqc guess=check
 ---------------------------------------------------------------
 1/29=2,38=1/1;
 2/12=2,40=1/2;
 3/5=7,11=9,14=-4,16=1,24=10,25=1,30=1,116=-2/1,2,3;
 4/5=1/1;
 5/5=2,8=3,13=1,38=6/2,8;
 8/6=4,9=120000,10=1/1,4;
 9/5=7,6=100,14=2/13;
 6/7=2,8=2,9=2,10=2/1;
 99/5=1,9=1/99;
 -------------------------------------------------
 BEB step 9: high-spin CCSD(T) for dication of ch4
 -------------------------------------------------
 Structure from the checkpoint file:  "ch4.chk"
 Charge =  2 Multiplicity = 3
 Redundant internal coordinates found in file.
 C,0,0.,0.000000001,0.000000001
 H,0,-0.000000006,-0.0000000007,1.0935113774
 H,0,0.,-1.0309724112,-0.3645037927
 H,0,-0.892848297,0.5154862096,-0.3645037952
 H,0,0.892848303,0.5154862062,-0.3645037855
 Recover connectivity data from disk.
                          Input orientation:                          
 ---------------------------------------------------------------------
 Center     Atomic      Atomic             Coordinates (Angstroms)
 Number     Number       Type             X           Y           Z
 ---------------------------------------------------------------------
      1          6           0        0.000000    0.000000    0.000000
      2          1           0        0.000000    0.000000    1.093511
      3          1           0        0.000000   -1.030972   -0.364504
      4          1           0       -0.892848    0.515486   -0.364504
      5          1           0        0.892848    0.515486   -0.364504
 ---------------------------------------------------------------------
                    Distance matrix (angstroms):
                    1          2          3          4          5
     1  C    0.000000
     2  H    1.093511   0.000000
     3  H    1.093511   1.785697   0.000000
     4  H    1.093511   1.785697   1.785697   0.000000
     5  H    1.093511   1.785697   1.785697   1.785697   0.000000
 Stoichiometry    CH4(2+,3)
 Framework group  TD[O(C),4C3(H)]
 Deg. of freedom     1
 Full point group                 TD      NOp  24
 Largest Abelian subgroup         D2      NOp   4
 Largest concise Abelian subgroup D2      NOp   4
                         Standard orientation:                         
 ---------------------------------------------------------------------
 Center     Atomic      Atomic             Coordinates (Angstroms)
 Number     Number       Type             X           Y           Z
 ---------------------------------------------------------------------
      1          6           0        0.000000    0.000000    0.000000
      2          1           0        0.631339    0.631339    0.631339
      3          1           0       -0.631339   -0.631339    0.631339
      4          1           0       -0.631339    0.631339   -0.631339
      5          1           0        0.631339   -0.631339   -0.631339
 ---------------------------------------------------------------------
 Rotational constants (GHZ):    157.2594344    157.2594344    157.2594344
 General basis read from cards:  (5D, 7F)
 AO basis set in the form of general basis input (Overlap normalization):
      1 0
 S   7 1.00       0.000000000000
      0.8236000000D+04  0.5419783203D-03
      0.1235000000D+04  0.4192873817D-02
      0.2808000000D+03  0.2152216205D-01
      0.7927000000D+02  0.8353432195D-01
      0.2559000000D+02  0.2395828457D+00
      0.8997000000D+01  0.4428528419D+00
      0.3319000000D+01  0.3517995618D+00
 S   6 1.00       0.000000000000
      0.2808000000D+03 -0.5949224937D-04
      0.7927000000D+02 -0.1148158310D-02
      0.2559000000D+02 -0.1001913745D-01
      0.8997000000D+01 -0.6121949230D-01
      0.3319000000D+01 -0.1732698541D+00
      0.3643000000D+00  0.1072915192D+01
 S   1 1.00       0.000000000000
      0.9059000000D+00  0.1000000000D+01
 S   1 1.00       0.000000000000
      0.1285000000D+00  0.1000000000D+01
 P   3 1.00       0.000000000000
      0.1871000000D+02  0.3942638716D-01
      0.4133000000D+01  0.2440889849D+00
      0.1200000000D+01  0.8154920089D+00
 P   1 1.00       0.000000000000
      0.3827000000D+00  0.1000000000D+01
 P   1 1.00       0.000000000000
      0.1209000000D+00  0.1000000000D+01
 D   1 1.00       0.000000000000
      0.1097000000D+01  0.1000000000D+01
 D   1 1.00       0.000000000000
      0.3180000000D+00  0.1000000000D+01
 F   1 1.00       0.000000000000
      0.7610000000D+00  0.1000000000D+01
 ****
      2 0
 S   3 1.00       0.000000000000
      0.3387000000D+02  0.2549486323D-01
      0.5095000000D+01  0.1903627659D+00
      0.1159000000D+01  0.8521620222D+00
 S   1 1.00       0.000000000000
      0.3258000000D+00  0.1000000000D+01
 S   1 1.00       0.000000000000
      0.1027000000D+00  0.1000000000D+01
 P   1 1.00       0.000000000000
      0.1407000000D+01  0.1000000000D+01
 P   1 1.00       0.000000000000
      0.3880000000D+00  0.1000000000D+01
 D   1 1.00       0.000000000000
      0.1057000000D+01  0.1000000000D+01
 ****
      3 0
 S   3 1.00       0.000000000000
      0.3387000000D+02  0.2549486323D-01
      0.5095000000D+01  0.1903627659D+00
      0.1159000000D+01  0.8521620222D+00
 S   1 1.00       0.000000000000
      0.3258000000D+00  0.1000000000D+01
 S   1 1.00       0.000000000000
      0.1027000000D+00  0.1000000000D+01
 P   1 1.00       0.000000000000
      0.1407000000D+01  0.1000000000D+01
 P   1 1.00       0.000000000000
      0.3880000000D+00  0.1000000000D+01
 D   1 1.00       0.000000000000
      0.1057000000D+01  0.1000000000D+01
 ****
      4 0
 S   3 1.00       0.000000000000
      0.3387000000D+02  0.2549486323D-01
      0.5095000000D+01  0.1903627659D+00
      0.1159000000D+01  0.8521620222D+00
 S   1 1.00       0.000000000000
      0.3258000000D+00  0.1000000000D+01
 S   1 1.00       0.000000000000
      0.1027000000D+00  0.1000000000D+01
 P   1 1.00       0.000000000000
      0.1407000000D+01  0.1000000000D+01
 P   1 1.00       0.000000000000
      0.3880000000D+00  0.1000000000D+01
 D   1 1.00       0.000000000000
      0.1057000000D+01  0.1000000000D+01
 ****
      5 0
 S   3 1.00       0.000000000000
      0.3387000000D+02  0.2549486323D-01
      0.5095000000D+01  0.1903627659D+00
      0.1159000000D+01  0.8521620222D+00
 S   1 1.00       0.000000000000
      0.3258000000D+00  0.1000000000D+01
 S   1 1.00       0.000000000000
      0.1027000000D+00  0.1000000000D+01
 P   1 1.00       0.000000000000
      0.1407000000D+01  0.1000000000D+01
 P   1 1.00       0.000000000000
      0.3880000000D+00  0.1000000000D+01
 D   1 1.00       0.000000000000
      0.1057000000D+01  0.1000000000D+01
 ****

 There are    26 symmetry adapted cartesian basis functions of A   symmetry.
 There are    23 symmetry adapted cartesian basis functions of B1  symmetry.
 There are    23 symmetry adapted cartesian basis functions of B2  symmetry.
 There are    23 symmetry adapted cartesian basis functions of B3  symmetry.
 There are    23 symmetry adapted basis functions of A   symmetry.
 There are    21 symmetry adapted basis functions of B1  symmetry.
 There are    21 symmetry adapted basis functions of B2  symmetry.
 There are    21 symmetry adapted basis functions of B3  symmetry.
    86 basis functions,   120 primitive gaussians,    95 cartesian basis functions
     5 alpha electrons        3 beta electrons
       nuclear repulsion energy        13.3922467928 Hartrees.
 NAtoms=    5 NActive=    5 NUniq=    2 SFac= 4.00D+00 NAtFMM=   60 NAOKFM=F Big=F
 Integral buffers will be    131072 words long.
 Raffenetti 2 integral format.
 Two-electron integral symmetry is turned on.
 One-electron integrals computed using PRISM.
 NBasis=    86 RedAO= T EigKep=  1.58D-03  NBF=    23    21    21    21
 NBsUse=    86 1.00D-06 EigRej= -1.00D+00 NBFU=    23    21    21    21
 Initial guess from the checkpoint file:  "ch4.chk"
 B after Tr=     0.000000    0.000000    0.000000
         Rot=    1.000000    0.000000    0.000000    0.000000 Ang=   0.00 deg.
 Initial guess orbital symmetries:
 Alpha Orbitals:
       Occupied  (A1) (?A) (?B) (?B) (?B)
       Virtual   (A1) (?B) (?B) (?B) (?B) (?B) (?B) (?B) (?A) (?B)
                 (?B) (?A) (?A) (?A) (?B) (?B) (?B) (?B) (?B) (?B)
                 (?B) (?B) (?B) (?B) (?B) (?B) (?A) (?A) (?A) (?B)
                 (?B) (?B) (?A) (?B) (?B) (?B) (?A) (?B) (?B) (?B)
                 (?A) (?B) (?B) (?B) (?B) (?B) (?B) (?B) (?B) (?B)
                 (?A) (?A) (?A) (?B) (?B) (?B) (?A) (?A) (?B) (?B)
                 (?B) (?B) (?B) (?B) (?C) (?B) (?B) (?B) (?B) (?B)
                 (?B) (?B) (?B) (?B) (?C) (?C) (?C) (T2) (T2) (T2)
                 (A1)
 Beta  Orbitals:
       Occupied  (A1) (?A) (?B)
       Virtual   (?B) (?B) (?A) (?B) (?B) (?B) (?B) (?B) (?B) (?B)
                 (?B) (?A) (?A) (?B) (?A) (?A) (?B) (?B) (?B) (?B)
                 (?B) (?B) (?B) (?B) (?B) (?B) (?B) (?B) (?A) (?A)
                 (?A) (T2) (T2) (T2) (A1) (?C) (?C) (?C) (?A) (?D)
                 (?D) (?D) (?A) (?C) (?C) (?C) (?D) (?D) (?D) (?D)
                 (?D) (?D) (?E) (?E) (A1) (?F) (?F) (?F) (?E) (?E)
                 (?F) (?F) (?F) (?F) (?F) (?F) (A1) (?F) (?F) (?F)
                 (?F) (?F) (?F) (?F) (?F) (?F) (A1) (E) (E) (T2)
                 (T2) (T2) (A1)
 Initial guess <Sx>= 0.0000 <Sy>= 0.0000 <Sz>= 1.0000 <S**2>= 2.0107 S= 1.0036
 Keep R1 and R2 ints in memory in symmetry-blocked form, NReq=9019840.
 Requested convergence on RMS density matrix=1.00D-08 within  64 cycles.
 Requested convergence on MAX density matrix=1.00D-06.
 Requested convergence on             energy=1.00D-06.
 No special actions if energy rises.
 Density matrix breaks symmetry, PCut= 1.00D-04
 Density has only Abelian symmetry.
 Density matrix breaks symmetry, PCut= 1.00D-07
 Density has only Abelian symmetry.
 Density matrix breaks symmetry, PCut= 1.00D-07
 Density has only Abelian symmetry.
 Density matrix breaks symmetry, PCut= 1.00D-07
 Density has only Abelian symmetry.
 Density matrix breaks symmetry, PCut= 1.00D-07
 Density has only Abelian symmetry.
 Density matrix breaks symmetry, PCut= 1.00D-07
 Density has only Abelian symmetry.
 Density matrix breaks symmetry, PCut= 1.00D-07
 Density has only Abelian symmetry.
 Density matrix breaks symmetry, PCut= 1.00D-07
 Density has only Abelian symmetry.
 Density matrix breaks symmetry, PCut= 1.00D-07
 Density has only Abelian symmetry.
 Density matrix breaks symmetry, PCut= 1.00D-07
 Density has only Abelian symmetry.
 SCF Done:  E(UHF) =  -38.8882882303     A.U. after    9 cycles
            NFock=  9  Conv=0.90D-08     -V/T= 1.9826
 <Sx>= 0.0000 <Sy>= 0.0000 <Sz>= 1.0000 <S**2>= 2.0205 S= 1.0068
 <L.S>= 0.000000000000E+00
 Annihilation of the first spin contaminant:
 S**2 before annihilation     2.0205,   after     2.0001
 QCSCF skips out because SCF is already converged.
 ExpMin= 1.03D-01 ExpMax= 8.24D+03 ExpMxC= 2.81D+02 IAcc=3 IRadAn=         5 AccDes= 0.00D+00
 HarFok:  IExCor=  205 AccDes= 0.00D+00 IRadAn=         5 IDoV=-2 UseB2=F ITyADJ=14
 ICtDFT= 12500011 ScaDFX=  1.000000  1.000000  1.000000  1.000000
 Range of M.O.s used for correlation:     2    86
 NBasis=    86 NAE=     5 NBE=     3 NFC=     1 NFV=     0
 NROrb=     85 NOA=     4 NOB=     2 NVA=    81 NVB=    83

 **** Warning!!: The largest alpha MO coefficient is  0.12661532D+02


 **** Warning!!: The largest beta MO coefficient is  0.12659533D+02

 Semi-Direct transformation.
 ModeAB=           4 MOrb=             4 LenV=    1048191339
 LASXX=       294099 LTotXX=      294099 LenRXX=      599356
 LTotAB=      305257 MaxLAS=      613020 LenRXY=           0
 NonZer=      893455 LenScr=     2009088 LnRSAI=      613020
 LnScr1=     1571840 LExtra=           0 Total=      4793304
 MaxDsk=          -1 SrtSym=           T ITran=            4
 JobTyp=1 Pass  1:  I=   1 to   4.
 (rs|ai) integrals will be sorted in core.
 ModeAB=           4 MOrb=             2 LenV=    1048191339
 LASXX=       149038 LTotXX=      149038 LenRXX=      289381
 LTotAB=      140343 MaxLAS=      306510 LenRXY=           0
 NonZer=      438419 LenScr=     1314816 LnRSAI=      306510
 LnScr1=      918528 LExtra=           0 Total=      2829235
 MaxDsk=          -1 SrtSym=           T ITran=            4
 JobTyp=2 Pass  1:  I=   1 to   2.
 (rs|ai) integrals will be sorted in core.
 Spin components of T(2) and E(2):
     alpha-alpha T2 =       0.5093325669D-02 E2=     -0.1841566661D-01
     alpha-beta  T2 =       0.3002532764D-01 E2=     -0.1007950283D+00
     beta-beta   T2 =       0.1268305946D-02 E2=     -0.3435461963D-02
 ANorm=    0.1018030923D+01
 E2 =    -0.1226461569D+00 EUMP2 =    -0.39010934387130D+02
 (S**2,0)=  0.20205D+01           (S**2,1)=  0.20059D+01
 E(PUHF)=      -0.38892438699D+02        E(PMP2)=      -0.39013615626D+02
 Keep R2 and R3 ints in memory in symmetry-blocked form, NReq=8950725.
 Iterations= 100 Convergence= 0.100D-06
 Iteration Nr.   1
 **********************
 DD1Dir will call FoFMem   1 times, MxPair=        24
 NAB=     8 NAA=     6 NBB=     1.
 E(PMP3)=      -0.39030211241D+02
 MP4(R+Q)=  0.24536275D-02
 E3=       -0.17828227D-01        EUMP3=      -0.39028762614D+02
 E4(DQ)=   -0.21517953D-02        UMP4(DQ)=   -0.39030914410D+02
 E4(SDQ)=  -0.29771946D-02        UMP4(SDQ)=  -0.39031739809D+02
 DE(Corr)= -0.13803321     E(Corr)=     -39.026321443    
 NORM(A)=   0.10256432D+01
 Iteration Nr.   2
 **********************
 DD1Dir will call FoFMem   1 times, MxPair=        24
 NAB=     8 NAA=     6 NBB=     1.
 DE(Corr)= -0.14276129     E(CORR)=     -39.031049521     Delta=-4.73D-03
 NORM(A)=   0.10285542D+01
 Iteration Nr.   3
 **********************
 DD1Dir will call FoFMem   1 times, MxPair=        24
 NAB=     8 NAA=     6 NBB=     1.
 DE(Corr)= -0.14428414     E(CORR)=     -39.032572366     Delta=-1.52D-03
 NORM(A)=   0.10292471D+01
 Iteration Nr.   4
 **********************
 DD1Dir will call FoFMem   1 times, MxPair=        24
 NAB=     8 NAA=     6 NBB=     1.
 DE(Corr)= -0.14460981     E(CORR)=     -39.032898040     Delta=-3.26D-04
 NORM(A)=   0.10293565D+01
 Iteration Nr.   5
 **********************
 DD1Dir will call FoFMem   1 times, MxPair=        24
 NAB=     8 NAA=     6 NBB=     1.
 DE(Corr)= -0.14463872     E(CORR)=     -39.032926945     Delta=-2.89D-05
 NORM(A)=   0.10293587D+01
 Iteration Nr.   6
 **********************
 DD1Dir will call FoFMem   1 times, MxPair=        24
 NAB=     8 NAA=     6 NBB=     1.
 DE(Corr)= -0.14463866     E(CORR)=     -39.032926889     Delta= 5.63D-08
 NORM(A)=   0.10293600D+01
 Iteration Nr.   7
 **********************
 DD1Dir will call FoFMem   1 times, MxPair=        24
 NAB=     8 NAA=     6 NBB=     1.
 DE(Corr)= -0.14463908     E(CORR)=     -39.032927309     Delta=-4.20D-07
 NORM(A)=   0.10293604D+01
 Iteration Nr.   8
 **********************
 DD1Dir will call FoFMem   1 times, MxPair=        24
 NAB=     8 NAA=     6 NBB=     1.
 DE(Corr)= -0.14463932     E(CORR)=     -39.032927550     Delta=-2.41D-07
 NORM(A)=   0.10293603D+01
 Iteration Nr.   9
 **********************
 DD1Dir will call FoFMem   1 times, MxPair=        24
 NAB=     8 NAA=     6 NBB=     1.
 DE(Corr)= -0.14463926     E(CORR)=     -39.032927493     Delta= 5.70D-08
 NORM(A)=   0.10293602D+01
 Largest amplitude= 3.69D-02
 Time for triples=        5.63 seconds.
 T4(CCSD)= -0.37132021D-02
 T5(CCSD)=  0.77013485D-04
 CCSD(T)= -0.39036563682D+02

 S**2, projected HF & approx projected MPn energies after annihilation of
 unwanted spin states (see manual for definitions):

 spins       (S**2,0) (S**2,1)    PUHF        PMP2        PMP3        PMP4
 annihilated
 s+1         1.99991  2.00005  -38.892439  -39.013616  -39.030211
 s+1,s+2     2.00000  2.00000  -38.892422  -39.013602  -39.030199

 Discarding MO integrals.

 **********************************************************************

            Population analysis using the SCF density.

 **********************************************************************

 Orbital symmetries:
 Alpha Orbitals:
       Occupied  (A1) (?A) (?B) (?B) (?B)
       Virtual   (?A) (?B) (?B) (?B) (?B) (?B) (?B) (?A) (?A) (?A)
                 (?B) (?B) (?B) (?A) (?B) (?B) (?B) (?B) (?B) (?B)
                 (?B) (?B) (?B) (?B) (?B) (?B) (?A) (?A) (?A) (?B)
                 (?B) (?B) (?A) (?B) (?B) (?B) (?A) (?B) (?B) (?A)
                 (?B) (?B) (?B) (?B) (?B) (?B) (?B) (?B) (?B) (?B)
                 (?A) (?A) (?A) (?B) (?B) (?B) (?A) (?A) (?B) (?B)
                 (?B) (?B) (?B) (?B) (?C) (?B) (?B) (?B) (?B) (?B)
                 (?B) (?B) (?B) (?B) (?C) (?C) (?C) (?B) (?B) (?B)
                 (A1)
 Beta  Orbitals:
       Occupied  (A1) (?A) (?B)
       Virtual   (?B) (?B) (?A) (?B) (?B) (?B) (?B) (?B) (?B) (?A)
                 (?A) (?B) (?A) (?B) (?B) (?A) (?B) (?B) (?B) (?B)
                 (?B) (?B) (?B) (?B) (?B) (?B) (?B) (?B) (?A) (?A)
                 (?A) (T2) (T2) (T2) (A1) (?C) (?C) (?C) (?A) (?C)
                 (?C) (?C) (?A) (?C) (?C) (?C) (?C) (?C) (?C) (?C)
                 (?C) (?C) (?D) (?D) (A1) (?C) (?C) (?C) (?D) (?D)
                 (?C) (?C) (?C) (?C) (?C) (?C) (A1) (?C) (?C) (?C)
                 (?C) (?C) (?C) (?C) (?C) (?C) (A1) (E) (E) (T2)
                 (T2) (T2) (A1)
 Unable to determine electronic state:  an orbital has unidentified symmetry.
 Alpha  occ. eigenvalues --  -12.05532  -1.80259  -1.39811  -1.39811  -1.34641
 Alpha virt. eigenvalues --   -0.35852  -0.32072  -0.32072  -0.31763  -0.20448
 Alpha virt. eigenvalues --   -0.20448  -0.19553  -0.02256   0.00601   0.02771
 Alpha virt. eigenvalues --    0.03227   0.03227   0.04159   0.15023   0.42195
 Alpha virt. eigenvalues --    0.42298   0.42298   0.48282   0.49312   0.49312
 Alpha virt. eigenvalues --    0.67683   0.67683   0.68948   0.88345   0.88345
 Alpha virt. eigenvalues --    0.89355   0.92305   0.94563   1.08925   1.65339
 Alpha virt. eigenvalues --    1.65339   1.66646   1.81258   2.20767   2.20767
 Alpha virt. eigenvalues --    2.21262   2.32138   2.34053   2.34053   2.34475
 Alpha virt. eigenvalues --    2.34619   2.52047   2.52047   2.52516   2.84528
 Alpha virt. eigenvalues --    2.85989   2.85989   2.97356   2.97356   2.97435
 Alpha virt. eigenvalues --    3.04240   3.05127   3.10640   3.32516   3.33129
 Alpha virt. eigenvalues --    3.33129   3.35648   3.36363   3.64394   3.64701
 Alpha virt. eigenvalues --    3.64701   3.77235   3.77235   3.78763   4.01112
 Alpha virt. eigenvalues --    4.28286   4.28286   4.29574   4.69414   4.69414
 Alpha virt. eigenvalues --    4.70657   4.70810   4.71728   4.71728   4.76752
 Alpha virt. eigenvalues --    4.83834   4.85936   5.38278   5.39877   5.39877
 Alpha virt. eigenvalues --   13.62273
  Beta  occ. eigenvalues --  -12.03116  -1.56508  -1.25317
  Beta virt. eigenvalues --   -0.79179  -0.79179  -0.33487  -0.27206  -0.25770
  Beta virt. eigenvalues --   -0.25770  -0.16641  -0.16641  -0.16265   0.04006
  Beta virt. eigenvalues --    0.06128   0.07298   0.07737   0.08969   0.08969
  Beta virt. eigenvalues --    0.17346   0.45064   0.45211   0.45211   0.52948
  Beta virt. eigenvalues --    0.53183   0.53183   0.70088   0.70225   0.70225
  Beta virt. eigenvalues --    0.90989   0.91963   0.91963   0.95809   0.96306
  Beta virt. eigenvalues --    1.13701   1.71723   1.71723   1.71914   1.86232
  Beta virt. eigenvalues --    2.25904   2.26349   2.26349   2.38652   2.39242
  Beta virt. eigenvalues --    2.39242   2.39396   2.39480   2.56757   2.56757
  Beta virt. eigenvalues --    2.57267   2.88085   2.88721   2.88721   3.00327
  Beta virt. eigenvalues --    3.00902   3.00902   3.07213   3.07246   3.13702
  Beta virt. eigenvalues --    3.35970   3.36433   3.36433   3.39400   3.39456
  Beta virt. eigenvalues --    3.66444   3.66663   3.66663   3.79474   3.79474
  Beta virt. eigenvalues --    3.80320   4.05721   4.30835   4.30835   4.31479
  Beta virt. eigenvalues --    4.72968   4.72968   4.73584   4.73650   4.73972
  Beta virt. eigenvalues --    4.73972   4.79717   4.87110   4.87923   5.43065
  Beta virt. eigenvalues --    5.43477   5.43477  13.63911
          Condensed to atoms (all electrons):
               1          2          3          4          5
     1  C    4.658750   0.288567   0.288567   0.288567   0.288567
     2  H    0.288567   0.261077  -0.006116  -0.006116   0.009333
     3  H    0.288567  -0.006116   0.261077   0.009333  -0.006116
     4  H    0.288567  -0.006116   0.009333   0.261077  -0.006116
     5  H    0.288567   0.009333  -0.006116  -0.006116   0.261077
          Atomic-Atomic Spin Densities.
               1          2          3          4          5
     1  C    0.620029   0.106209   0.106209   0.106209   0.106209
     2  H    0.106209   0.139071  -0.000438  -0.000438  -0.005621
     3  H    0.106209  -0.000438   0.139071  -0.005621  -0.000438
     4  H    0.106209  -0.000438  -0.005621   0.139071  -0.000438
     5  H    0.106209  -0.005621  -0.000438  -0.000438   0.139071
 Mulliken charges and spin densities:
               1          2
     1  C    0.186982   1.044865
     2  H    0.453255   0.238784
     3  H    0.453255   0.238784
     4  H    0.453255   0.238784
     5  H    0.453255   0.238784
 Sum of Mulliken charges =   2.00000   2.00000
 Mulliken charges and spin densities with hydrogens summed into heavy atoms:
               1          2
     1  C    2.000000   2.000000
 Electronic spatial extent (au):  <R**2>=             20.8315
 Charge=              2.0000 electrons
 Dipole moment (field-independent basis, Debye):
    X=              0.0000    Y=              0.0000    Z=              0.0000  Tot=              0.0000
 Quadrupole moment (field-independent basis, Debye-Ang):
   XX=             -2.5641   YY=             -1.2405   ZZ=             -1.2405
   XY=              0.0000   XZ=              0.0000   YZ=              0.0000
 Traceless Quadrupole moment (field-independent basis, Debye-Ang):
   XX=             -0.8824   YY=              0.4412   ZZ=              0.4412
   XY=              0.0000   XZ=              0.0000   YZ=              0.0000
 Octapole moment (field-independent basis, Debye-Ang**2):
  XXX=              0.0000  YYY=              0.0000  ZZZ=              0.0000  XYY=              0.0000
  XXY=              0.0000  XXZ=              0.0000  XZZ=              0.0000  YZZ=              0.0000
  YYZ=              0.0000  XYZ=              2.8530
 Hexadecapole moment (field-independent basis, Debye-Ang**3):
 XXXX=             -6.5256 YYYY=             -4.5662 ZZZZ=             -4.5662 XXXY=              0.0000
 XXXZ=              0.0000 YYYX=              0.0000 YYYZ=              0.0000 ZZZX=              0.0000
 ZZZY=              0.0000 XXYY=             -0.4803 XXZZ=             -0.4803 YYZZ=             -0.1291
 XXYZ=              0.0000 YYXZ=              0.0000 ZZXY=              0.0000
 N-N= 1.339224679282D+01 E-N=-1.112880633110D+02  KE= 3.957693775864D+01
 Symmetry A    KE= 3.487531143211D+01
 Symmetry B1   KE= 1.184984375936D+00
 Symmetry B2   KE= 1.184984440402D+00
 Symmetry B3   KE= 2.331657510190D+00
 1\1\GINC-GAMBA\SP\UCCSD(T)-FC\Gen\C1H4(2+,3)\IRIKURA\17-May-2017\0\\# 
 CCSD(T,maxcyc=100)/GEN gfinput geom=check scf=xqc guess=check\\BEB ste
 p 9: high-spin CCSD(T) for dication of ch4\\2,3\C,0,0.,0.000000001,0.0
 00000001\H,0,-0.000000006,-0.0000000007,1.0935113774\H,0,0.,-1.0309724
 112,-0.3645037927\H,0,-0.892848297,0.5154862096,-0.3645037952\H,0,0.89
 2848303,0.5154862062,-0.3645037855\\Version=ES64L-G09RevD.01\HF=-38.88
 82882\MP2=-39.0109344\MP3=-39.0287626\MP4D=-39.033368\MP4DQ=-39.030914
 4\PUHF=-38.8924387\PMP2-0=-39.0136156\PMP3-0=-39.0302112\MP4SDQ=-39.03
 17398\CCSD=-39.0329275\CCSD(T)=-39.0365637\S2=2.020542\S2-1=2.005938\S
 2A=2.000128\RMSD=9.020e-09\PG=TD [O(C1),4C3(H1)]\\@


 THE MEEK SHALL INHERIT THE EARTH.
 (THE REST OF US WILL ESCAPE TO THE STARS)
 Job cpu time:       0 days  0 hours  0 minutes 35.0 seconds.
 File lengths (MBytes):  RWF=     47 Int=      0 D2E=      0 Chk=      2 Scr=      1
 Normal termination of Gaussian 09 at Wed May 17 13:21:29 2017.
