 Entering Gaussian System, Link 0=g09
 Initial command:
 /usr/local/apps/g09/l1.exe "/wrk/irikura/Gau-28782.inp" -scrdir="/wrk/irikura/"
 Entering Link 1 = /usr/local/apps/g09/l1.exe PID=     28784.
  
 Copyright (c) 1988,1990,1992,1993,1995,1998,2003,2009,2013,
            Gaussian, Inc.  All Rights Reserved.
  
 This is part of the Gaussian(R) 09 program.  It is based on
 the Gaussian(R) 03 system (copyright 2003, Gaussian, Inc.),
 the Gaussian(R) 98 system (copyright 1998, Gaussian, Inc.),
 the Gaussian(R) 94 system (copyright 1995, Gaussian, Inc.),
 the Gaussian 92(TM) system (copyright 1992, Gaussian, Inc.),
 the Gaussian 90(TM) system (copyright 1990, Gaussian, Inc.),
 the Gaussian 88(TM) system (copyright 1988, Gaussian, Inc.),
 the Gaussian 86(TM) system (copyright 1986, Carnegie Mellon
 University), and the Gaussian 82(TM) system (copyright 1983,
 Carnegie Mellon University). Gaussian is a federally registered
 trademark of Gaussian, Inc.
  
 This software contains proprietary and confidential information,
 including trade secrets, belonging to Gaussian, Inc.
  
 This software is provided under written license and may be
 used, copied, transmitted, or stored only in accord with that
 written license.
  
 The following legend is applicable only to US Government
 contracts under FAR:
  
                    RESTRICTED RIGHTS LEGEND
  
 Use, reproduction and disclosure by the US Government is
 subject to restrictions as set forth in subparagraphs (a)
 and (c) of the Commercial Computer Software - Restricted
 Rights clause in FAR 52.227-19.
  
 Gaussian, Inc.
 340 Quinnipiac St., Bldg. 40, Wallingford CT 06492
  
  
 ---------------------------------------------------------------
 Warning -- This program may not be used in any manner that
 competes with the business of Gaussian, Inc. or will provide
 assistance to any competitor of Gaussian, Inc.  The licensee
 of this program is prohibited from giving any competitor of
 Gaussian, Inc. access to this program.  By using this program,
 the user acknowledges that Gaussian, Inc. is engaged in the
 business of creating and licensing software in the field of
 computational chemistry and represents and warrants to the
 licensee that it is not a competitor of Gaussian, Inc. and that
 it will not use this program in any manner prohibited above.
 ---------------------------------------------------------------
  

 Cite this work as:
 Gaussian 09, Revision D.01,
 M. J. Frisch, G. W. Trucks, H. B. Schlegel, G. E. Scuseria, 
 M. A. Robb, J. R. Cheeseman, G. Scalmani, V. Barone, B. Mennucci, 
 G. A. Petersson, H. Nakatsuji, M. Caricato, X. Li, H. P. Hratchian, 
 A. F. Izmaylov, J. Bloino, G. Zheng, J. L. Sonnenberg, M. Hada, 
 M. Ehara, K. Toyota, R. Fukuda, J. Hasegawa, M. Ishida, T. Nakajima, 
 Y. Honda, O. Kitao, H. Nakai, T. Vreven, J. A. Montgomery, Jr., 
 J. E. Peralta, F. Ogliaro, M. Bearpark, J. J. Heyd, E. Brothers, 
 K. N. Kudin, V. N. Staroverov, T. Keith, R. Kobayashi, J. Normand, 
 K. Raghavachari, A. Rendell, J. C. Burant, S. S. Iyengar, J. Tomasi, 
 M. Cossi, N. Rega, J. M. Millam, M. Klene, J. E. Knox, J. B. Cross, 
 V. Bakken, C. Adamo, J. Jaramillo, R. Gomperts, R. E. Stratmann, 
 O. Yazyev, A. J. Austin, R. Cammi, C. Pomelli, J. W. Ochterski, 
 R. L. Martin, K. Morokuma, V. G. Zakrzewski, G. A. Voth, 
 P. Salvador, J. J. Dannenberg, S. Dapprich, A. D. Daniels, 
 O. Farkas, J. B. Foresman, J. V. Ortiz, J. Cioslowski, 
 and D. J. Fox, Gaussian, Inc., Wallingford CT, 2013.
 
 ******************************************
 Gaussian 09:  ES64L-G09RevD.01 24-Apr-2013
                17-May-2017 
 ******************************************
 %chk=ch4.chk
 %nprocs=4
 Will use up to    4 processors via shared memory.
 %mem=1000mw
 ---------------------------------------------------
 # CCSD(T,maxcyc=100)/GEN gfinput geom=check scf=xqc
 ---------------------------------------------------
 1/29=2,38=1/1;
 2/12=2,40=1/2;
 3/5=7,11=9,14=-4,16=1,24=10,25=1,30=1/1,2,3;
 4//1;
 5/5=2,8=3,13=1,38=5/2,8;
 8/6=4,9=120000,10=1/1,4;
 9/5=7,6=100,14=2/13;
 6/7=2,8=2,9=2,10=2/1;
 99/5=1,9=1/99;
 ----------------------------------------------
 BEB step 8: low-spin CCSD(T) for cation of ch4
 ----------------------------------------------
 Structure from the checkpoint file:  "ch4.chk"
 Charge =  1 Multiplicity = 2
 Redundant internal coordinates found in file.
 C,0,0.,0.000000001,0.000000001
 H,0,-0.000000006,-0.0000000007,1.0935113774
 H,0,0.,-1.0309724112,-0.3645037927
 H,0,-0.892848297,0.5154862096,-0.3645037952
 H,0,0.892848303,0.5154862062,-0.3645037855
 Recover connectivity data from disk.
                          Input orientation:                          
 ---------------------------------------------------------------------
 Center     Atomic      Atomic             Coordinates (Angstroms)
 Number     Number       Type             X           Y           Z
 ---------------------------------------------------------------------
      1          6           0        0.000000    0.000000    0.000000
      2          1           0        0.000000    0.000000    1.093511
      3          1           0        0.000000   -1.030972   -0.364504
      4          1           0       -0.892848    0.515486   -0.364504
      5          1           0        0.892848    0.515486   -0.364504
 ---------------------------------------------------------------------
                    Distance matrix (angstroms):
                    1          2          3          4          5
     1  C    0.000000
     2  H    1.093511   0.000000
     3  H    1.093511   1.785697   0.000000
     4  H    1.093511   1.785697   1.785697   0.000000
     5  H    1.093511   1.785697   1.785697   1.785697   0.000000
 Stoichiometry    CH4(1+,2)
 Framework group  TD[O(C),4C3(H)]
 Deg. of freedom     1
 Full point group                 TD      NOp  24
 Largest Abelian subgroup         D2      NOp   4
 Largest concise Abelian subgroup D2      NOp   4
                         Standard orientation:                         
 ---------------------------------------------------------------------
 Center     Atomic      Atomic             Coordinates (Angstroms)
 Number     Number       Type             X           Y           Z
 ---------------------------------------------------------------------
      1          6           0        0.000000    0.000000    0.000000
      2          1           0        0.631339    0.631339    0.631339
      3          1           0       -0.631339   -0.631339    0.631339
      4          1           0       -0.631339    0.631339   -0.631339
      5          1           0        0.631339   -0.631339   -0.631339
 ---------------------------------------------------------------------
 Rotational constants (GHZ):    157.2594344    157.2594344    157.2594344
 General basis read from cards:  (5D, 7F)
 AO basis set in the form of general basis input (Overlap normalization):
      1 0
 S   7 1.00       0.000000000000
      0.8236000000D+04  0.5419783203D-03
      0.1235000000D+04  0.4192873817D-02
      0.2808000000D+03  0.2152216205D-01
      0.7927000000D+02  0.8353432195D-01
      0.2559000000D+02  0.2395828457D+00
      0.8997000000D+01  0.4428528419D+00
      0.3319000000D+01  0.3517995618D+00
 S   6 1.00       0.000000000000
      0.2808000000D+03 -0.5949224937D-04
      0.7927000000D+02 -0.1148158310D-02
      0.2559000000D+02 -0.1001913745D-01
      0.8997000000D+01 -0.6121949230D-01
      0.3319000000D+01 -0.1732698541D+00
      0.3643000000D+00  0.1072915192D+01
 S   1 1.00       0.000000000000
      0.9059000000D+00  0.1000000000D+01
 S   1 1.00       0.000000000000
      0.1285000000D+00  0.1000000000D+01
 P   3 1.00       0.000000000000
      0.1871000000D+02  0.3942638716D-01
      0.4133000000D+01  0.2440889849D+00
      0.1200000000D+01  0.8154920089D+00
 P   1 1.00       0.000000000000
      0.3827000000D+00  0.1000000000D+01
 P   1 1.00       0.000000000000
      0.1209000000D+00  0.1000000000D+01
 D   1 1.00       0.000000000000
      0.1097000000D+01  0.1000000000D+01
 D   1 1.00       0.000000000000
      0.3180000000D+00  0.1000000000D+01
 F   1 1.00       0.000000000000
      0.7610000000D+00  0.1000000000D+01
 ****
      2 0
 S   3 1.00       0.000000000000
      0.3387000000D+02  0.2549486323D-01
      0.5095000000D+01  0.1903627659D+00
      0.1159000000D+01  0.8521620222D+00
 S   1 1.00       0.000000000000
      0.3258000000D+00  0.1000000000D+01
 S   1 1.00       0.000000000000
      0.1027000000D+00  0.1000000000D+01
 P   1 1.00       0.000000000000
      0.1407000000D+01  0.1000000000D+01
 P   1 1.00       0.000000000000
      0.3880000000D+00  0.1000000000D+01
 D   1 1.00       0.000000000000
      0.1057000000D+01  0.1000000000D+01
 ****
      3 0
 S   3 1.00       0.000000000000
      0.3387000000D+02  0.2549486323D-01
      0.5095000000D+01  0.1903627659D+00
      0.1159000000D+01  0.8521620222D+00
 S   1 1.00       0.000000000000
      0.3258000000D+00  0.1000000000D+01
 S   1 1.00       0.000000000000
      0.1027000000D+00  0.1000000000D+01
 P   1 1.00       0.000000000000
      0.1407000000D+01  0.1000000000D+01
 P   1 1.00       0.000000000000
      0.3880000000D+00  0.1000000000D+01
 D   1 1.00       0.000000000000
      0.1057000000D+01  0.1000000000D+01
 ****
      4 0
 S   3 1.00       0.000000000000
      0.3387000000D+02  0.2549486323D-01
      0.5095000000D+01  0.1903627659D+00
      0.1159000000D+01  0.8521620222D+00
 S   1 1.00       0.000000000000
      0.3258000000D+00  0.1000000000D+01
 S   1 1.00       0.000000000000
      0.1027000000D+00  0.1000000000D+01
 P   1 1.00       0.000000000000
      0.1407000000D+01  0.1000000000D+01
 P   1 1.00       0.000000000000
      0.3880000000D+00  0.1000000000D+01
 D   1 1.00       0.000000000000
      0.1057000000D+01  0.1000000000D+01
 ****
      5 0
 S   3 1.00       0.000000000000
      0.3387000000D+02  0.2549486323D-01
      0.5095000000D+01  0.1903627659D+00
      0.1159000000D+01  0.8521620222D+00
 S   1 1.00       0.000000000000
      0.3258000000D+00  0.1000000000D+01
 S   1 1.00       0.000000000000
      0.1027000000D+00  0.1000000000D+01
 P   1 1.00       0.000000000000
      0.1407000000D+01  0.1000000000D+01
 P   1 1.00       0.000000000000
      0.3880000000D+00  0.1000000000D+01
 D   1 1.00       0.000000000000
      0.1057000000D+01  0.1000000000D+01
 ****

 There are    26 symmetry adapted cartesian basis functions of A   symmetry.
 There are    23 symmetry adapted cartesian basis functions of B1  symmetry.
 There are    23 symmetry adapted cartesian basis functions of B2  symmetry.
 There are    23 symmetry adapted cartesian basis functions of B3  symmetry.
 There are    23 symmetry adapted basis functions of A   symmetry.
 There are    21 symmetry adapted basis functions of B1  symmetry.
 There are    21 symmetry adapted basis functions of B2  symmetry.
 There are    21 symmetry adapted basis functions of B3  symmetry.
    86 basis functions,   120 primitive gaussians,    95 cartesian basis functions
     5 alpha electrons        4 beta electrons
       nuclear repulsion energy        13.3922467928 Hartrees.
 NAtoms=    5 NActive=    5 NUniq=    2 SFac= 4.00D+00 NAtFMM=   60 NAOKFM=F Big=F
 Integral buffers will be    131072 words long.
 Raffenetti 2 integral format.
 Two-electron integral symmetry is turned on.
 One-electron integrals computed using PRISM.
 NBasis=    86 RedAO= T EigKep=  1.58D-03  NBF=    23    21    21    21
 NBsUse=    86 1.00D-06 EigRej= -1.00D+00 NBFU=    23    21    21    21
 ExpMin= 1.03D-01 ExpMax= 8.24D+03 ExpMxC= 2.81D+02 IAcc=1 IRadAn=         1 AccDes= 0.00D+00
 Harris functional with IExCor=  205 and IRadAn=       1 diagonalized for initial guess.
 HarFok:  IExCor=  205 AccDes= 0.00D+00 IRadAn=         1 IDoV= 1 UseB2=F ITyADJ=14
 ICtDFT=  3500011 ScaDFX=  1.000000  1.000000  1.000000  1.000000
 FoFCou: FMM=F IPFlag=           0 FMFlag=      100000 FMFlg1=           0
         NFxFlg=           0 DoJE=T BraDBF=F KetDBF=T FulRan=T
         wScrn=  0.000000 ICntrl=     500 IOpCl=  0 I1Cent=   200000004 NGrid=           0
         NMat0=    1 NMatS0=      1 NMatT0=    0 NMatD0=    1 NMtDS0=    0 NMtDT0=    0
 Petite list used in FoFCou.
 Initial guess orbital symmetries:
 Alpha Orbitals:
       Occupied  (A1) (A1) (T2) (T2) (T2)
       Virtual   (A1) (T2) (T2) (T2) (T2) (T2) (T2) (T2) (T2) (T2)
                 (A1) (E) (E) (A1) (T1) (T1) (T1) (T2) (T2) (T2)
                 (T2) (T2) (T2) (T2) (T2) (T2) (E) (E) (A1) (T2)
                 (T2) (T2) (A1) (T2) (T2) (T2) (E) (E) (T1) (T1)
                 (T1) (T2) (T2) (T2) (T1) (T1) (T1) (T2) (T2) (T2)
                 (E) (E) (A1) (T2) (T2) (T2) (E) (E) (T1) (T1)
                 (T1) (T2) (T2) (T2) (A1) (T2) (T2) (T2) (T2) (T2)
                 (T2) (T1) (T1) (T1) (A1) (E) (E) (T2) (T2) (T2)
                 (A1)
 Beta  Orbitals:
       Occupied  (A1) (A1) (T2) (T2)
       Virtual   (T2) (A1) (T2) (T2) (T2) (T2) (T2) (T2) (T2) (T2)
                 (T2) (A1) (E) (E) (A1) (T1) (T1) (T1) (T2) (T2)
                 (T2) (T2) (T2) (T2) (T2) (T2) (T2) (E) (E) (A1)
                 (T2) (T2) (T2) (A1) (T2) (T2) (T2) (E) (E) (T1)
                 (T1) (T1) (T2) (T2) (T2) (T1) (T1) (T1) (T2) (T2)
                 (T2) (E) (E) (A1) (T2) (T2) (T2) (E) (E) (T1)
                 (T1) (T1) (T2) (T2) (T2) (A1) (T2) (T2) (T2) (T2)
                 (T2) (T2) (T1) (T1) (T1) (A1) (E) (E) (T2) (T2)
                 (T2) (A1)
 Initial guess <Sx>= 0.0000 <Sy>= 0.0000 <Sz>= 0.5000 <S**2>= 0.7500 S= 0.5000
 Keep R1 and R2 ints in memory in symmetry-blocked form, NReq=9019840.
 Requested convergence on RMS density matrix=1.00D-08 within  64 cycles.
 Requested convergence on MAX density matrix=1.00D-06.
 Requested convergence on             energy=1.00D-06.
 No special actions if energy rises.
 Density matrix breaks symmetry, PCut= 1.00D-04
 Density has only Abelian symmetry.
 Density matrix breaks symmetry, PCut= 1.00D-07
 Density has only Abelian symmetry.
 Density matrix breaks symmetry, PCut= 1.00D-07
 Density has only Abelian symmetry.
 Density matrix breaks symmetry, PCut= 1.00D-07
 Density has only Abelian symmetry.
 Density matrix breaks symmetry, PCut= 1.00D-07
 Density has only Abelian symmetry.
 Density matrix breaks symmetry, PCut= 1.00D-07
 Density has only Abelian symmetry.
 Density matrix breaks symmetry, PCut= 1.00D-07
 Density has only Abelian symmetry.
 Density matrix breaks symmetry, PCut= 1.00D-07
 Density has only Abelian symmetry.
 Density matrix breaks symmetry, PCut= 1.00D-07
 Density has only Abelian symmetry.
 Density matrix breaks symmetry, PCut= 1.00D-07
 Density has only Abelian symmetry.
 Density matrix breaks symmetry, PCut= 1.00D-07
 Density has only Abelian symmetry.
 SCF Done:  E(UHF) =  -39.7191310520     A.U. after   10 cycles
            NFock= 10  Conv=0.38D-08     -V/T= 1.9955
 <Sx>= 0.0000 <Sy>= 0.0000 <Sz>= 0.5000 <S**2>= 0.7668 S= 0.5084
 <L.S>= 0.000000000000E+00
 Annihilation of the first spin contaminant:
 S**2 before annihilation     0.7668,   after     0.7502
 QCSCF skips out because SCF is already converged.
 ExpMin= 1.03D-01 ExpMax= 8.24D+03 ExpMxC= 2.81D+02 IAcc=3 IRadAn=         5 AccDes= 0.00D+00
 HarFok:  IExCor=  205 AccDes= 0.00D+00 IRadAn=         5 IDoV=-2 UseB2=F ITyADJ=14
 ICtDFT= 12500011 ScaDFX=  1.000000  1.000000  1.000000  1.000000
 Range of M.O.s used for correlation:     2    86
 NBasis=    86 NAE=     5 NBE=     4 NFC=     1 NFV=     0
 NROrb=     85 NOA=     4 NOB=     3 NVA=    81 NVB=    82

 **** Warning!!: The largest alpha MO coefficient is  0.12651172D+02


 **** Warning!!: The largest beta MO coefficient is  0.12650437D+02

 Semi-Direct transformation.
 ModeAB=           4 MOrb=             4 LenV=    1048192155
 LASXX=       294099 LTotXX=      294099 LenRXX=      599356
 LTotAB=      305257 MaxLAS=      613020 LenRXY=           0
 NonZer=      893455 LenScr=     2009088 LnRSAI=      613020
 LnScr1=     1571840 LExtra=           0 Total=      4793304
 MaxDsk=          -1 SrtSym=           T ITran=            4
 JobTyp=1 Pass  1:  I=   1 to   4.
 (rs|ai) integrals will be sorted in core.
 ModeAB=           4 MOrb=             3 LenV=    1048192155
 LASXX=       222100 LTotXX=      222100 LenRXX=      431364
 LTotAB=      209264 MaxLAS=      459765 LenRXY=           0
 NonZer=      653464 LenScr=     1571840 LnRSAI=      459765
 LnScr1=     1378304 LExtra=           0 Total=      3841273
 MaxDsk=          -1 SrtSym=           T ITran=            4
 JobTyp=2 Pass  1:  I=   1 to   3.
 (rs|ai) integrals will be sorted in core.
 Spin components of T(2) and E(2):
     alpha-alpha T2 =       0.5400486240D-02 E2=     -0.1777497414D-01
     alpha-beta  T2 =       0.4080503321D-01 E2=     -0.1352627188D+00
     beta-beta   T2 =       0.3786530953D-02 E2=     -0.1078284800D-01
 ANorm=    0.1024691198D+01
 E2 =    -0.1638205409D+00 EUMP2 =    -0.39882951592942D+02
 (S**2,0)=  0.76685D+00           (S**2,1)=  0.75478D+00
 E(PUHF)=      -0.39723460407D+02        E(PMP2)=      -0.39885741250D+02
 Keep R2 and R3 ints in memory in symmetry-blocked form, NReq=8950725.
 Iterations= 100 Convergence= 0.100D-06
 Iteration Nr.   1
 **********************
 DD1Dir will call FoFMem   1 times, MxPair=        34
 NAB=    12 NAA=     6 NBB=     3.
 E(PMP3)=      -0.39904305240D+02
 MP4(R+Q)=  0.34723418D-02
 E3=       -0.19847760D-01        EUMP3=      -0.39902799353D+02
 E4(DQ)=   -0.16688490D-02        UMP4(DQ)=   -0.39904468202D+02
 E4(SDQ)=  -0.25463113D-02        UMP4(SDQ)=  -0.39905345664D+02
 DE(Corr)= -0.18018715     E(Corr)=     -39.899318203    
 NORM(A)=   0.10326008D+01
 Iteration Nr.   2
 **********************
 DD1Dir will call FoFMem   1 times, MxPair=        34
 NAB=    12 NAA=     6 NBB=     3.
 DE(Corr)= -0.18516351     E(CORR)=     -39.904294561     Delta=-4.98D-03
 NORM(A)=   0.10356004D+01
 Iteration Nr.   3
 **********************
 DD1Dir will call FoFMem   1 times, MxPair=        34
 NAB=    12 NAA=     6 NBB=     3.
 DE(Corr)= -0.18666134     E(CORR)=     -39.905792395     Delta=-1.50D-03
 NORM(A)=   0.10362787D+01
 Iteration Nr.   4
 **********************
 DD1Dir will call FoFMem   1 times, MxPair=        34
 NAB=    12 NAA=     6 NBB=     3.
 DE(Corr)= -0.18701250     E(CORR)=     -39.906143551     Delta=-3.51D-04
 NORM(A)=   0.10364113D+01
 Iteration Nr.   5
 **********************
 DD1Dir will call FoFMem   1 times, MxPair=        34
 NAB=    12 NAA=     6 NBB=     3.
 DE(Corr)= -0.18704732     E(CORR)=     -39.906178375     Delta=-3.48D-05
 NORM(A)=   0.10364202D+01
 Iteration Nr.   6
 **********************
 DD1Dir will call FoFMem   1 times, MxPair=        34
 NAB=    12 NAA=     6 NBB=     3.
 DE(Corr)= -0.18704768     E(CORR)=     -39.906178729     Delta=-3.54D-07
 NORM(A)=   0.10364214D+01
 Iteration Nr.   7
 **********************
 DD1Dir will call FoFMem   1 times, MxPair=        34
 NAB=    12 NAA=     6 NBB=     3.
 DE(Corr)= -0.18704789     E(CORR)=     -39.906178940     Delta=-2.11D-07
 NORM(A)=   0.10364219D+01
 Iteration Nr.   8
 **********************
 DD1Dir will call FoFMem   1 times, MxPair=        34
 NAB=    12 NAA=     6 NBB=     3.
 DE(Corr)= -0.18704811     E(CORR)=     -39.906179164     Delta=-2.23D-07
 NORM(A)=   0.10364218D+01
 Iteration Nr.   9
 **********************
 DD1Dir will call FoFMem   1 times, MxPair=        34
 NAB=    12 NAA=     6 NBB=     3.
 DE(Corr)= -0.18704809     E(CORR)=     -39.906179139     Delta= 2.45D-08
 NORM(A)=   0.10364217D+01
 Largest amplitude= 3.30D-02
 Time for triples=        7.35 seconds.
 T4(CCSD)= -0.54136709D-02
 T5(CCSD)=  0.94563750D-04
 CCSD(T)= -0.39911498246D+02

 S**2, projected HF & approx projected MPn energies after annihilation of
 unwanted spin states (see manual for definitions):

 spins       (S**2,0) (S**2,1)    PUHF        PMP2        PMP3        PMP4
 annihilated
 s+1         0.74987  0.75006  -39.723460  -39.885741  -39.904305
 s+1,s+2     0.75000  0.75000  -39.723436  -39.885718  -39.904285
 s+1 to s+3  0.75000  0.75000  -39.723436  -39.885718  -39.904285

 Discarding MO integrals.

 **********************************************************************

            Population analysis using the SCF density.

 **********************************************************************

 Orbital symmetries:
 Alpha Orbitals:
       Occupied  (A1) (?A) (?B) (?B) (?B)
       Virtual   (A1) (?B) (?B) (?B) (?B) (?B) (?B) (?B) (?A) (?B)
                 (?B) (?A) (?A) (?A) (?B) (?B) (?B) (?B) (?B) (?B)
                 (?B) (?B) (?B) (?B) (?B) (?B) (?A) (?A) (?A) (?B)
                 (?B) (?B) (?A) (?B) (?B) (?B) (?A) (?B) (?B) (?B)
                 (?A) (?B) (?B) (?B) (?B) (?B) (?B) (?B) (?B) (?B)
                 (?A) (?A) (?A) (?B) (?B) (?B) (?A) (?A) (?B) (?B)
                 (?B) (?B) (?B) (?B) (?C) (?B) (?B) (?B) (?B) (?B)
                 (?B) (?B) (?B) (?B) (?C) (?C) (?C) (T2) (T2) (T2)
                 (A1)
 Beta  Orbitals:
       Occupied  (A1) (?A) (?B) (?B)
       Virtual   (?B) (?A) (?B) (?B) (?B) (?B) (?B) (?B) (?B) (?B)
                 (?A) (?A) (?B) (?A) (?A) (?B) (?B) (?B) (?B) (?B)
                 (?B) (?B) (?B) (?B) (?B) (?B) (?B) (?A) (?A) (?A)
                 (T2) (T2) (T2) (A1) (?C) (?C) (?C) (?A) (?D) (?D)
                 (?D) (?A) (?C) (?C) (?C) (?D) (?D) (?D) (?D) (?D)
                 (?D) (?E) (?E) (A1) (?F) (?F) (?F) (?E) (?E) (?F)
                 (?F) (?F) (?F) (?F) (?F) (A1) (?F) (?F) (?F) (?F)
                 (?F) (?F) (?F) (?F) (?F) (A1) (E) (E) (T2) (T2)
                 (T2) (A1)
 Unable to determine electronic state:  an orbital has unidentified symmetry.
 Alpha  occ. eigenvalues --  -11.60035  -1.35158  -0.97474  -0.92917  -0.92917
 Alpha virt. eigenvalues --   -0.09443  -0.02364  -0.01874  -0.01874   0.08072
 Alpha virt. eigenvalues --    0.08533   0.08533   0.32835   0.33518   0.33885
 Alpha virt. eigenvalues --    0.33885   0.33904   0.36028   0.45226   0.75264
 Alpha virt. eigenvalues --    0.75264   0.75430   0.82830   0.82830   0.83792
 Alpha virt. eigenvalues --    0.99720   1.00889   1.00889   1.20897   1.21931
 Alpha virt. eigenvalues --    1.21931   1.26209   1.28391   1.45049   2.04377
 Alpha virt. eigenvalues --    2.05495   2.05495   2.20189   2.60819   2.61694
 Alpha virt. eigenvalues --    2.61694   2.74326   2.74982   2.75547   2.75547
 Alpha virt. eigenvalues --    2.76194   2.93169   2.93188   2.93188   3.23812
 Alpha virt. eigenvalues --    3.23812   3.25336   3.36267   3.36473   3.36473
 Alpha virt. eigenvalues --    3.42756   3.43683   3.49692   3.71766   3.71766
 Alpha virt. eigenvalues --    3.72374   3.74574   3.75118   4.01717   4.01717
 Alpha virt. eigenvalues --    4.02004   4.14990   4.16427   4.16427   4.43018
 Alpha virt. eigenvalues --    4.66684   4.67881   4.67881   5.09563   5.10056
 Alpha virt. eigenvalues --    5.10056   5.12020   5.12020   5.12188   5.17247
 Alpha virt. eigenvalues --    5.23756   5.25616   5.81041   5.81041   5.82473
 Alpha virt. eigenvalues --   14.03224
  Beta  occ. eigenvalues --  -11.59275  -1.24052  -0.87604  -0.87604
  Beta virt. eigenvalues --   -0.45071  -0.08600  -0.00882  -0.00882   0.00812
  Beta virt. eigenvalues --    0.10019   0.10811   0.10811   0.35991   0.35991
  Beta virt. eigenvalues --    0.36312   0.36468   0.37867   0.38885   0.47027
  Beta virt. eigenvalues --    0.76991   0.76991   0.77149   0.85117   0.85117
  Beta virt. eigenvalues --    0.85385   1.01550   1.01550   1.01712   1.22730
  Beta virt. eigenvalues --    1.22730   1.23667   1.28276   1.28728   1.47669
  Beta virt. eigenvalues --    2.08320   2.08496   2.08496   2.22737   2.63678
  Beta virt. eigenvalues --    2.63678   2.64082   2.77475   2.77699   2.77838
  Beta virt. eigenvalues --    2.77838   2.78165   2.94852   2.95309   2.95309
  Beta virt. eigenvalues --    3.25850   3.25850   3.26456   3.37935   3.37935
  Beta virt. eigenvalues --    3.38405   3.44505   3.44571   3.51364   3.73787
  Beta virt. eigenvalues --    3.73787   3.74217   3.76769   3.76820   4.02971
  Beta virt. eigenvalues --    4.02971   4.03184   4.16561   4.17350   4.17350
  Beta virt. eigenvalues --    4.45384   4.68340   4.68945   4.68945   5.11478
  Beta virt. eigenvalues --    5.11822   5.11822   5.13151   5.13151   5.13193
  Beta virt. eigenvalues --    5.18726   5.25625   5.26388   5.83317   5.83317
  Beta virt. eigenvalues --    5.83722  14.03847
          Condensed to atoms (all electrons):
               1          2          3          4          5
     1  C    4.729510   0.348923   0.348923   0.348923   0.348923
     2  H    0.348923   0.399808  -0.001058  -0.027915  -0.001058
     3  H    0.348923  -0.001058   0.399808  -0.001058  -0.027915
     4  H    0.348923  -0.027915  -0.001058   0.399808  -0.001058
     5  H    0.348923  -0.001058  -0.027915  -0.001058   0.399808
          Atomic-Atomic Spin Densities.
               1          2          3          4          5
     1  C    0.118775   0.056911   0.056911   0.056911   0.056911
     2  H    0.056911   0.117820  -0.007673   0.004009  -0.007673
     3  H    0.056911  -0.007673   0.117820  -0.007673   0.004009
     4  H    0.056911   0.004009  -0.007673   0.117820  -0.007673
     5  H    0.056911  -0.007673   0.004009  -0.007673   0.117820
 Mulliken charges and spin densities:
               1          2
     1  C   -0.125200   0.346420
     2  H    0.281300   0.163395
     3  H    0.281300   0.163395
     4  H    0.281300   0.163395
     5  H    0.281300   0.163395
 Sum of Mulliken charges =   1.00000   1.00000
 Mulliken charges and spin densities with hydrogens summed into heavy atoms:
               1          2
     1  C    1.000000   1.000000
 Electronic spatial extent (au):  <R**2>=             27.5527
 Charge=              1.0000 electrons
 Dipole moment (field-independent basis, Debye):
    X=              0.0000    Y=              0.0000    Z=              0.0000  Tot=              0.0000
 Quadrupole moment (field-independent basis, Debye-Ang):
   XX=             -5.1623   YY=             -3.7607   ZZ=             -5.1623
   XY=              0.0000   XZ=              0.0000   YZ=              0.0000
 Traceless Quadrupole moment (field-independent basis, Debye-Ang):
   XX=             -0.4672   YY=              0.9344   ZZ=             -0.4672
   XY=              0.0000   XZ=              0.0000   YZ=              0.0000
 Octapole moment (field-independent basis, Debye-Ang**2):
  XXX=              0.0000  YYY=              0.0000  ZZZ=              0.0000  XYY=              0.0000
  XXY=              0.0000  XXZ=              0.0000  XZZ=              0.0000  YZZ=              0.0000
  YYZ=              0.0000  XYZ=              1.9666
 Hexadecapole moment (field-independent basis, Debye-Ang**3):
 XXXX=            -10.5634 YYYY=             -8.1381 ZZZZ=            -10.5634 XXXY=              0.0000
 XXXZ=              0.0000 YYYX=              0.0000 YYYZ=              0.0000 ZZZX=              0.0000
 ZZZY=              0.0000 XXYY=             -2.0632 XXZZ=             -2.5048 YYZZ=             -2.0632
 XXYZ=              0.0000 YYXZ=              0.0000 ZZXY=              0.0000
 N-N= 1.339224679282D+01 E-N=-1.157522628190D+02  KE= 3.989987596175D+01
 Symmetry A    KE= 3.463980915209D+01
 Symmetry B1   KE= 2.096191391264D+00
 Symmetry B2   KE= 1.067684027126D+00
 Symmetry B3   KE= 2.096191391264D+00
 1\1\GINC-GAMBA\SP\UCCSD(T)-FC\Gen\C1H4(1+,2)\IRIKURA\17-May-2017\0\\# 
 CCSD(T,maxcyc=100)/GEN gfinput geom=check scf=xqc\\BEB step 8: low-spi
 n CCSD(T) for cation of ch4\\1,2\C,0,0.,0.000000001,0.000000001\H,0,-0
 .000000006,-0.0000000007,1.0935113774\H,0,0.,-1.0309724112,-0.36450379
 27\H,0,-0.892848297,0.5154862096,-0.3645037952\H,0,0.892848303,0.51548
 62062,-0.3645037855\\Version=ES64L-G09RevD.01\HF=-39.7191311\MP2=-39.8
 829516\MP3=-39.9027994\MP4D=-39.9079405\MP4DQ=-39.9044682\PUHF=-39.723
 4604\PMP2-0=-39.8857413\PMP3-0=-39.9043052\MP4SDQ=-39.9053457\CCSD=-39
 .9061791\CCSD(T)=-39.9114982\S2=0.766849\S2-1=0.754775\S2A=0.75021\RMS
 D=3.798e-09\PG=TD [O(C1),4C3(H1)]\\@


 IF IT'S NOT TRUE, IT'S WELL INVENTED -- DANTE
 Job cpu time:       0 days  0 hours  0 minutes 37.5 seconds.
 File lengths (MBytes):  RWF=     47 Int=      0 D2E=      0 Chk=      2 Scr=      1
 Normal termination of Gaussian 09 at Wed May 17 13:21:19 2017.
