 Entering Gaussian System, Link 0=g09
 Initial command:
 /usr/local/apps/g09/l1.exe "/wrk/irikura/Gau-27516.inp" -scrdir="/wrk/irikura/"
 Entering Link 1 = /usr/local/apps/g09/l1.exe PID=     27518.
  
 Copyright (c) 1988,1990,1992,1993,1995,1998,2003,2009,2013,
            Gaussian, Inc.  All Rights Reserved.
  
 This is part of the Gaussian(R) 09 program.  It is based on
 the Gaussian(R) 03 system (copyright 2003, Gaussian, Inc.),
 the Gaussian(R) 98 system (copyright 1998, Gaussian, Inc.),
 the Gaussian(R) 94 system (copyright 1995, Gaussian, Inc.),
 the Gaussian 92(TM) system (copyright 1992, Gaussian, Inc.),
 the Gaussian 90(TM) system (copyright 1990, Gaussian, Inc.),
 the Gaussian 88(TM) system (copyright 1988, Gaussian, Inc.),
 the Gaussian 86(TM) system (copyright 1986, Carnegie Mellon
 University), and the Gaussian 82(TM) system (copyright 1983,
 Carnegie Mellon University). Gaussian is a federally registered
 trademark of Gaussian, Inc.
  
 This software contains proprietary and confidential information,
 including trade secrets, belonging to Gaussian, Inc.
  
 This software is provided under written license and may be
 used, copied, transmitted, or stored only in accord with that
 written license.
  
 The following legend is applicable only to US Government
 contracts under FAR:
  
                    RESTRICTED RIGHTS LEGEND
  
 Use, reproduction and disclosure by the US Government is
 subject to restrictions as set forth in subparagraphs (a)
 and (c) of the Commercial Computer Software - Restricted
 Rights clause in FAR 52.227-19.
  
 Gaussian, Inc.
 340 Quinnipiac St., Bldg. 40, Wallingford CT 06492
  
  
 ---------------------------------------------------------------
 Warning -- This program may not be used in any manner that
 competes with the business of Gaussian, Inc. or will provide
 assistance to any competitor of Gaussian, Inc.  The licensee
 of this program is prohibited from giving any competitor of
 Gaussian, Inc. access to this program.  By using this program,
 the user acknowledges that Gaussian, Inc. is engaged in the
 business of creating and licensing software in the field of
 computational chemistry and represents and warrants to the
 licensee that it is not a competitor of Gaussian, Inc. and that
 it will not use this program in any manner prohibited above.
 ---------------------------------------------------------------
  

 Cite this work as:
 Gaussian 09, Revision D.01,
 M. J. Frisch, G. W. Trucks, H. B. Schlegel, G. E. Scuseria, 
 M. A. Robb, J. R. Cheeseman, G. Scalmani, V. Barone, B. Mennucci, 
 G. A. Petersson, H. Nakatsuji, M. Caricato, X. Li, H. P. Hratchian, 
 A. F. Izmaylov, J. Bloino, G. Zheng, J. L. Sonnenberg, M. Hada, 
 M. Ehara, K. Toyota, R. Fukuda, J. Hasegawa, M. Ishida, T. Nakajima, 
 Y. Honda, O. Kitao, H. Nakai, T. Vreven, J. A. Montgomery, Jr., 
 J. E. Peralta, F. Ogliaro, M. Bearpark, J. J. Heyd, E. Brothers, 
 K. N. Kudin, V. N. Staroverov, T. Keith, R. Kobayashi, J. Normand, 
 K. Raghavachari, A. Rendell, J. C. Burant, S. S. Iyengar, J. Tomasi, 
 M. Cossi, N. Rega, J. M. Millam, M. Klene, J. E. Knox, J. B. Cross, 
 V. Bakken, C. Adamo, J. Jaramillo, R. Gomperts, R. E. Stratmann, 
 O. Yazyev, A. J. Austin, R. Cammi, C. Pomelli, J. W. Ochterski, 
 R. L. Martin, K. Morokuma, V. G. Zakrzewski, G. A. Voth, 
 P. Salvador, J. J. Dannenberg, S. Dapprich, A. D. Daniels, 
 O. Farkas, J. B. Foresman, J. V. Ortiz, J. Cioslowski, 
 and D. J. Fox, Gaussian, Inc., Wallingford CT, 2013.
 
 ******************************************
 Gaussian 09:  ES64L-G09RevD.01 24-Apr-2013
                17-May-2017 
 ******************************************
 %chk=ch3.chk
 %nprocs=4
 Will use up to    4 processors via shared memory.
 %mem=1000mw
 ---------------------------------------
 # B3LYP/GEN gfinput OPT FREQ scf=xqc 6D
 ---------------------------------------
 1/14=-1,18=20,19=15,26=3,38=1/1,3;
 2/9=110,12=2,17=6,18=5,40=1/2;
 3/5=7,8=2,11=2,16=1,24=10,25=1,30=1,71=1,74=-5/1,2,3;
 4//1;
 5/5=2,8=3,13=1,38=5/2,8;
 6/7=2,8=2,9=2,10=2,28=1/1;
 7//1,2,3,16;
 1/14=-1,18=20,19=15,26=3/3(2);
 2/9=110/2;
 99//99;
 2/9=110/2;
 3/5=7,6=1,8=2,11=2,16=1,25=1,30=1,71=1,74=-5,82=7/1,2,3;
 4/5=5,16=3,69=1/1;
 5/5=2,8=3,13=1,38=5/2,8;
 7//1,2,3,16;
 1/14=-1,18=20,19=15,26=3/3(-5);
 2/9=110/2;
 6/7=2,8=2,9=2,10=2,19=2,28=1/1;
 99/9=1/99;
 ----------------------------------
 BEB step 1: geom and freqs for ch3
 ----------------------------------
 Symbolic Z-matrix:
 Charge =  0 Multiplicity = 2
 C                     0.        0.        0. 
 H                     0.       -1.05893   0. 
 H                    -0.91706   0.52946   0. 
 H                     0.91706   0.52946   0. 
 

 GradGradGradGradGradGradGradGradGradGradGradGradGradGradGradGradGradGrad
 Berny optimization.
 Initialization pass.
                           ----------------------------
                           !    Initial Parameters    !
                           ! (Angstroms and Degrees)  !
 --------------------------                            --------------------------
 ! Name  Definition              Value          Derivative Info.                !
 --------------------------------------------------------------------------------
 ! R1    R(1,2)                  1.0589         estimate D2E/DX2                !
 ! R2    R(1,3)                  1.0589         estimate D2E/DX2                !
 ! R3    R(1,4)                  1.0589         estimate D2E/DX2                !
 ! A1    A(2,1,3)              120.0            estimate D2E/DX2                !
 ! A2    A(2,1,4)              120.0            estimate D2E/DX2                !
 ! A3    A(3,1,4)              120.0            estimate D2E/DX2                !
 ! D1    D(2,1,4,3)            180.0            estimate D2E/DX2                !
 --------------------------------------------------------------------------------
 Trust Radius=3.00D-01 FncErr=1.00D-07 GrdErr=1.00D-06
 Number of steps in this run=     20 maximum allowed number of steps=    100.
 GradGradGradGradGradGradGradGradGradGradGradGradGradGradGradGradGradGrad

                          Input orientation:                          
 ---------------------------------------------------------------------
 Center     Atomic      Atomic             Coordinates (Angstroms)
 Number     Number       Type             X           Y           Z
 ---------------------------------------------------------------------
      1          6           0        0.000000    0.000000    0.000000
      2          1           0        0.000000   -1.058929    0.000000
      3          1           0       -0.917059    0.529464    0.000000
      4          1           0        0.917059    0.529464    0.000000
 ---------------------------------------------------------------------
                    Distance matrix (angstroms):
                    1          2          3          4
     1  C    0.000000
     2  H    1.058929   0.000000
     3  H    1.058929   1.834118   0.000000
     4  H    1.058929   1.834118   1.834118   0.000000
 Stoichiometry    CH3(2)
 Framework group  D3H[O(C),3C2(H)]
 Deg. of freedom     1
 Full point group                 D3H     NOp  12
 Largest Abelian subgroup         C2V     NOp   4
 Largest concise Abelian subgroup C2      NOp   2
                         Standard orientation:                         
 ---------------------------------------------------------------------
 Center     Atomic      Atomic             Coordinates (Angstroms)
 Number     Number       Type             X           Y           Z
 ---------------------------------------------------------------------
      1          6           0        0.000000    0.000000    0.000000
      2          1           0        0.000000    1.058929    0.000000
      3          1           0       -0.917059   -0.529464    0.000000
      4          1           0        0.917059   -0.529464    0.000000
 ---------------------------------------------------------------------
 Rotational constants (GHZ):    298.1311677    298.1311677    149.0655839
 General basis read from cards:  (6D, 7F)
 AO basis set in the form of general basis input (Overlap normalization):
      1 0
 S   6 1.00       0.000000000000
      0.3047524880D+04  0.1834737132D-02
      0.4573695180D+03  0.1403732281D-01
      0.1039486850D+03  0.6884262226D-01
      0.2921015530D+02  0.2321844432D+00
      0.9286662960D+01  0.4679413484D+00
      0.3163926960D+01  0.3623119853D+00
 SP   3 1.00       0.000000000000
      0.7868272350D+01 -0.1193324198D+00  0.6899906659D-01
      0.1881288540D+01 -0.1608541517D+00  0.3164239610D+00
      0.5442492580D+00  0.1143456438D+01  0.7443082909D+00
 SP   1 1.00       0.000000000000
      0.1687144782D+00  0.1000000000D+01  0.1000000000D+01
 D   1 1.00       0.000000000000
      0.8000000000D+00  0.1000000000D+01
 ****
      2 0
 S   3 1.00       0.000000000000
      0.1873113696D+02  0.3349460434D-01
      0.2825394365D+01  0.2347269535D+00
      0.6401216923D+00  0.8137573261D+00
 S   1 1.00       0.000000000000
      0.1612777588D+00  0.1000000000D+01
 ****
      3 0
 S   3 1.00       0.000000000000
      0.1873113696D+02  0.3349460434D-01
      0.2825394365D+01  0.2347269535D+00
      0.6401216923D+00  0.8137573261D+00
 S   1 1.00       0.000000000000
      0.1612777588D+00  0.1000000000D+01
 ****
      4 0
 S   3 1.00       0.000000000000
      0.1873113696D+02  0.3349460434D-01
      0.2825394365D+01  0.2347269535D+00
      0.6401216923D+00  0.8137573261D+00
 S   1 1.00       0.000000000000
      0.1612777588D+00  0.1000000000D+01
 ****

 There are    12 symmetry adapted cartesian basis functions of A1  symmetry.
 There are     1 symmetry adapted cartesian basis functions of A2  symmetry.
 There are     5 symmetry adapted cartesian basis functions of B1  symmetry.
 There are     3 symmetry adapted cartesian basis functions of B2  symmetry.
 There are    12 symmetry adapted basis functions of A1  symmetry.
 There are     1 symmetry adapted basis functions of A2  symmetry.
 There are     5 symmetry adapted basis functions of B1  symmetry.
 There are     3 symmetry adapted basis functions of B2  symmetry.
    21 basis functions,    40 primitive gaussians,    21 cartesian basis functions
     5 alpha electrons        4 beta electrons
       nuclear repulsion energy         9.8606751077 Hartrees.
 NAtoms=    4 NActive=    4 NUniq=    2 SFac= 4.00D+00 NAtFMM=   60 NAOKFM=F Big=F
 Integral buffers will be    131072 words long.
 Raffenetti 2 integral format.
 Two-electron integral symmetry is turned on.
 One-electron integrals computed using PRISM.
 NBasis=    21 RedAO= T EigKep=  4.49D-02  NBF=    12     1     5     3
 NBsUse=    21 1.00D-06 EigRej= -1.00D+00 NBFU=    12     1     5     3
 ExpMin= 1.61D-01 ExpMax= 3.05D+03 ExpMxC= 4.57D+02 IAcc=1 IRadAn=         1 AccDes= 0.00D+00
 Harris functional with IExCor=  402 and IRadAn=       1 diagonalized for initial guess.
 HarFok:  IExCor=  402 AccDes= 0.00D+00 IRadAn=         1 IDoV= 1 UseB2=F ITyADJ=14
 ICtDFT=  3500011 ScaDFX=  1.000000  1.000000  1.000000  1.000000
 FoFCou: FMM=F IPFlag=           0 FMFlag=      100000 FMFlg1=           0
         NFxFlg=           0 DoJE=T BraDBF=F KetDBF=T FulRan=T
         wScrn=  0.000000 ICntrl=     500 IOpCl=  0 I1Cent=   200000004 NGrid=           0
         NMat0=    1 NMatS0=      1 NMatT0=    0 NMatD0=    1 NMtDS0=    0 NMtDT0=    0
 Petite list used in FoFCou.
 Initial guess orbital symmetries:
 Alpha Orbitals:
       Occupied  (A1') (A1') (E') (E') (A2")
       Virtual   (A1') (E') (E') (E') (E') (A2") (A1') (E') (E')
                 (A1') (E") (E") (A1') (E') (E') (A1')
 Beta  Orbitals:
       Occupied  (A1') (A1') (E') (E')
       Virtual   (A2") (A1') (E') (E') (E') (E') (A2") (A1') (E')
                 (E') (A1') (E") (E") (A1') (E') (E') (A1')
 The electronic state of the initial guess is 2-A2".
 Initial guess <Sx>= 0.0000 <Sy>= 0.0000 <Sz>= 0.5000 <S**2>= 0.7500 S= 0.5000
 Keep R1 and R2 ints in memory in symmetry-blocked form, NReq=895012.
 Requested convergence on RMS density matrix=1.00D-08 within  64 cycles.
 Requested convergence on MAX density matrix=1.00D-06.
 Requested convergence on             energy=1.00D-06.
 No special actions if energy rises.
 Integral accuracy reduced to 1.0D-05 until final iterations.
 Initial convergence to 1.0D-05 achieved.  Increase integral accuracy.
 SCF Done:  E(UB3LYP) =  -39.8370928989     A.U. after   10 cycles
            NFock= 10  Conv=0.45D-08     -V/T= 2.0076
 <Sx>= 0.0000 <Sy>= 0.0000 <Sz>= 0.5000 <S**2>= 0.7535 S= 0.5017
 <L.S>= 0.000000000000E+00
 Annihilation of the first spin contaminant:
 S**2 before annihilation     0.7535,   after     0.7500
 QCSCF skips out because SCF is already converged.

 **********************************************************************

            Population analysis using the SCF density.

 **********************************************************************

 Orbital symmetries:
 Alpha Orbitals:
       Occupied  (A1') (A1') (E') (E') (A2")
       Virtual   (A1') (E') (E') (E') (E') (A2") (A1') (E') (E')
                 (A1') (E") (E") (A1') (E') (E') (A1')
 Beta  Orbitals:
       Occupied  (A1') (A1') (E') (E')
       Virtual   (A2") (A1') (E') (E') (E') (E') (A2") (A1') (E')
                 (E') (A1') (E") (E") (A1') (E') (E') (A1')
 The electronic state is 2-A2".
 Alpha  occ. eigenvalues --  -10.18455  -0.68765  -0.42151  -0.42151  -0.22415
 Alpha virt. eigenvalues --    0.12312   0.18888   0.18888   0.53709   0.53709
 Alpha virt. eigenvalues --    0.53819   0.68555   0.93525   0.93525   0.97747
 Alpha virt. eigenvalues --    1.64729   1.64729   2.03209   2.21533   2.21533
 Alpha virt. eigenvalues --    4.08109
  Beta  occ. eigenvalues --  -10.17055  -0.64731  -0.41161  -0.41161
  Beta virt. eigenvalues --   -0.04828   0.13863   0.19406   0.19406   0.54503
  Beta virt. eigenvalues --    0.54503   0.61650   0.71434   0.94061   0.94061
  Beta virt. eigenvalues --    1.00684   1.71829   1.71829   2.11683   2.22648
  Beta virt. eigenvalues --    2.22648   4.11881
          Condensed to atoms (all electrons):
               1          2          3          4
     1  C    5.337219   0.385410   0.385410   0.385410
     2  H    0.385410   0.511279  -0.030586  -0.030586
     3  H    0.385410  -0.030586   0.511279  -0.030586
     4  H    0.385410  -0.030586  -0.030586   0.511279
          Atomic-Atomic Spin Densities.
               1          2          3          4
     1  C    1.179470  -0.008808  -0.008808  -0.008808
     2  H   -0.008808  -0.043969   0.000881   0.000881
     3  H   -0.008808   0.000881  -0.043969   0.000881
     4  H   -0.008808   0.000881   0.000881  -0.043969
 Mulliken charges and spin densities:
               1          2
     1  C   -0.493450   1.153046
     2  H    0.164483  -0.051015
     3  H    0.164483  -0.051015
     4  H    0.164483  -0.051015
 Sum of Mulliken charges =   0.00000   1.00000
 Mulliken charges and spin densities with hydrogens summed into heavy atoms:
               1          2
     1  C    0.000000   1.000000
 Electronic spatial extent (au):  <R**2>=             28.7588
 Charge=              0.0000 electrons
 Dipole moment (field-independent basis, Debye):
    X=              0.0000    Y=              0.0000    Z=              0.0000  Tot=              0.0000
 Quadrupole moment (field-independent basis, Debye-Ang):
   XX=             -6.9824   YY=             -6.9824   ZZ=             -8.5588
   XY=              0.0000   XZ=              0.0000   YZ=              0.0000
 Traceless Quadrupole moment (field-independent basis, Debye-Ang):
   XX=              0.5254   YY=              0.5254   ZZ=             -1.0509
   XY=              0.0000   XZ=              0.0000   YZ=              0.0000
 Octapole moment (field-independent basis, Debye-Ang**2):
  XXX=              0.0000  YYY=              0.7351  ZZZ=              0.0000  XYY=              0.0000
  XXY=             -0.7351  XXZ=              0.0000  XZZ=              0.0000  YZZ=              0.0000
  YYZ=              0.0000  XYZ=              0.0000
 Hexadecapole moment (field-independent basis, Debye-Ang**3):
 XXXX=            -13.4809 YYYY=            -13.4809 ZZZZ=             -8.8601 XXXY=              0.0000
 XXXZ=              0.0000 YYYX=              0.0000 YYYZ=              0.0000 ZZZX=              0.0000
 ZZZY=              0.0000 XXYY=             -4.4936 XXZZ=             -4.0267 YYZZ=             -4.0267
 XXYZ=              0.0000 YYXZ=              0.0000 ZZXY=              0.0000
 N-N= 9.860675107665D+00 E-N=-1.115539946106D+02  KE= 3.953719187089D+01
 Symmetry A1   KE= 3.639834045953D+01
 Symmetry A2   KE= 2.039070231333D-33
 Symmetry B1   KE= 1.997002532872D+00
 Symmetry B2   KE= 1.141848878487D+00
                          Isotropic Fermi Contact Couplings
        Atom                 a.u.       MegaHertz       Gauss      10(-4) cm-1
     1  C(13)              0.10441     117.38129      41.88456      39.15419
     2  H(1)              -0.01560     -69.74968     -24.88842     -23.26599
     3  H(1)              -0.01560     -69.74968     -24.88842     -23.26599
     4  H(1)              -0.01560     -69.74968     -24.88842     -23.26599
 --------------------------------------------------------
       Center         ----  Spin Dipole Couplings  ----
                      3XX-RR        3YY-RR        3ZZ-RR
 --------------------------------------------------------
     1   Atom       -0.547116     -0.547116      1.094233
     2   Atom       -0.076240      0.079756     -0.003516
     3   Atom        0.040757     -0.037241     -0.003516
     4   Atom        0.040757     -0.037241     -0.003516
 --------------------------------------------------------
                        XY            XZ            YZ
 --------------------------------------------------------
     1   Atom        0.000000      0.000000      0.000000
     2   Atom        0.000000      0.000000      0.000000
     3   Atom        0.067548      0.000000      0.000000
     4   Atom       -0.067548      0.000000      0.000000
 --------------------------------------------------------


 ---------------------------------------------------------------------------------
              Anisotropic Spin Dipole Couplings in Principal Axis System
 ---------------------------------------------------------------------------------

       Atom             a.u.   MegaHertz   Gauss  10(-4) cm-1        Axes

              Baa    -0.5471   -73.418   -26.197   -24.490  1.0000  0.0000  0.0000
     1 C(13)  Bbb    -0.5471   -73.418   -26.197   -24.490  0.0000  1.0000  0.0000
              Bcc     1.0942   146.836    52.395    48.979  0.0000  0.0000  1.0000
 
              Baa    -0.0762   -40.678   -14.515   -13.569  1.0000  0.0000  0.0000
     2 H(1)   Bbb    -0.0035    -1.876    -0.669    -0.626  0.0000  0.0000  1.0000
              Bcc     0.0798    42.554    15.184    14.194  0.0000  1.0000  0.0000
 
              Baa    -0.0762   -40.678   -14.515   -13.569 -0.5000  0.8660  0.0000
     3 H(1)   Bbb    -0.0035    -1.876    -0.669    -0.626  0.0000  0.0000  1.0000
              Bcc     0.0798    42.554    15.184    14.194  0.8660  0.5000  0.0000
 
              Baa    -0.0762   -40.678   -14.515   -13.569  0.5000  0.8660  0.0000
     4 H(1)   Bbb    -0.0035    -1.876    -0.669    -0.626  0.0000  0.0000  1.0000
              Bcc     0.0798    42.554    15.184    14.194  0.8660 -0.5000  0.0000
 

 ---------------------------------------------------------------------------------

 Calling FoFJK, ICntrl=      2127 FMM=F ISym2X=1 I1Cent= 0 IOpClX= 1 NMat=1 NMatS=1 NMatT=0.
 ***** Axes restored to original set *****
 -------------------------------------------------------------------
 Center     Atomic                   Forces (Hartrees/Bohr)
 Number     Number              X              Y              Z
 -------------------------------------------------------------------
      1        6           0.000000000    0.000000000    0.000000000
      2        1           0.000000000   -0.018166644    0.000000000
      3        1          -0.015732776    0.009083322    0.000000000
      4        1           0.015732776    0.009083322    0.000000000
 -------------------------------------------------------------------
 Cartesian Forces:  Max     0.018166644 RMS     0.009083322

 GradGradGradGradGradGradGradGradGradGradGradGradGradGradGradGradGradGrad
 Berny optimization.
 FormGI is forming the generalized inverse of G from B-inverse, IUseBI=4.
 Internal  Forces:  Max     0.018166644 RMS     0.011892860
 Search for a local minimum.
 Step number   1 out of a maximum of   20
 All quantities printed in internal units (Hartrees-Bohrs-Radians)
 Mixed Optimization -- RFO/linear search
 Second derivative matrix not updated -- first step.
 The second derivative matrix:
                          R1        R2        R3        A1        A2
           R1           0.38665
           R2           0.00000   0.38665
           R3           0.00000   0.00000   0.38665
           A1           0.00000   0.00000   0.00000   0.16000
           A2           0.00000   0.00000   0.00000   0.00000   0.16000
           A3           0.00000   0.00000   0.00000   0.00000   0.00000
           D1           0.00000   0.00000   0.00000   0.00000   0.00000
                          A3        D1
           A3           0.16000
           D1           0.00000   0.00646
 ITU=  0
     Eigenvalues ---    0.00646   0.16000   0.16000   0.38665   0.38665
     Eigenvalues ---    0.38665
 RFO step:  Lambda=-2.54391715D-03 EMin= 6.45844204D-03
 Linear search not attempted -- first point.
 Iteration  1 RMS(Cart)=  0.03055755 RMS(Int)=  0.00000000
 Iteration  2 RMS(Cart)=  0.00000000 RMS(Int)=  0.00000000
 ClnCor:  largest displacement from symmetrization is 4.14D-13 for atom     1.
 Variable       Old X    -DE/DX   Delta X   Delta X   Delta X     New X
                                 (Linear)    (Quad)   (Total)
    R1        2.00109   0.01817   0.00000   0.04668   0.04668   2.04776
    R2        2.00109   0.01817   0.00000   0.04668   0.04668   2.04776
    R3        2.00109   0.01817   0.00000   0.04668   0.04668   2.04776
    A1        2.09440   0.00000   0.00000   0.00000   0.00000   2.09440
    A2        2.09440   0.00000   0.00000   0.00000   0.00000   2.09440
    A3        2.09440   0.00000   0.00000   0.00000   0.00000   2.09440
    D1        3.14159   0.00000   0.00000   0.00000   0.00000   3.14159
         Item               Value     Threshold  Converged?
 Maximum Force            0.018167     0.000450     NO 
 RMS     Force            0.011893     0.000300     NO 
 Maximum Displacement     0.046677     0.001800     NO 
 RMS     Displacement     0.030558     0.001200     NO 
 Predicted change in Energy=-1.280272D-03
 GradGradGradGradGradGradGradGradGradGradGradGradGradGradGradGradGradGrad

                          Input orientation:                          
 ---------------------------------------------------------------------
 Center     Atomic      Atomic             Coordinates (Angstroms)
 Number     Number       Type             X           Y           Z
 ---------------------------------------------------------------------
      1          6           0        0.000000    0.000000    0.000000
      2          1           0        0.000000   -1.083629    0.000000
      3          1           0       -0.938451    0.541815    0.000000
      4          1           0        0.938450    0.541815    0.000000
 ---------------------------------------------------------------------
                    Distance matrix (angstroms):
                    1          2          3          4
     1  C    0.000000
     2  H    1.083629   0.000000
     3  H    1.083629   1.876901   0.000000
     4  H    1.083629   1.876901   1.876901   0.000000
 Stoichiometry    CH3(2)
 Framework group  D3H[O(C),3C2(H)]
 Deg. of freedom     1
 Full point group                 D3H     NOp  12
 Largest Abelian subgroup         C2V     NOp   4
 Largest concise Abelian subgroup C2      NOp   2
                         Standard orientation:                         
 ---------------------------------------------------------------------
 Center     Atomic      Atomic             Coordinates (Angstroms)
 Number     Number       Type             X           Y           Z
 ---------------------------------------------------------------------
      1          6           0        0.000000    0.000000    0.000000
      2          1           0        0.000000    1.083629    0.000000
      3          1           0       -0.938450   -0.541815    0.000000
      4          1           0        0.938450   -0.541815    0.000000
 ---------------------------------------------------------------------
 Rotational constants (GHZ):    284.6946575    284.6946575    142.3473288
 Basis read from rwf:  (6D, 7F)
 There are    12 symmetry adapted cartesian basis functions of A1  symmetry.
 There are     1 symmetry adapted cartesian basis functions of A2  symmetry.
 There are     5 symmetry adapted cartesian basis functions of B1  symmetry.
 There are     3 symmetry adapted cartesian basis functions of B2  symmetry.
 There are    12 symmetry adapted basis functions of A1  symmetry.
 There are     1 symmetry adapted basis functions of A2  symmetry.
 There are     5 symmetry adapted basis functions of B1  symmetry.
 There are     3 symmetry adapted basis functions of B2  symmetry.
    21 basis functions,    40 primitive gaussians,    21 cartesian basis functions
     5 alpha electrons        4 beta electrons
       nuclear repulsion energy         9.6359074021 Hartrees.
 NAtoms=    4 NActive=    4 NUniq=    2 SFac= 4.00D+00 NAtFMM=   60 NAOKFM=F Big=F
 Integral buffers will be    131072 words long.
 Raffenetti 2 integral format.
 Two-electron integral symmetry is turned on.
 One-electron integrals computed using PRISM.
 NBasis=    21 RedAO= T EigKep=  4.82D-02  NBF=    12     1     5     3
 NBsUse=    21 1.00D-06 EigRej= -1.00D+00 NBFU=    12     1     5     3
 Initial guess from the checkpoint file:  "ch3.chk"
 B after Tr=     0.000000    0.000000    0.000000
         Rot=    1.000000    0.000000    0.000000    0.000000 Ang=   0.00 deg.
 Initial guess orbital symmetries:
 Alpha Orbitals:
       Occupied  (A1') (A1') (?A) (?A) (A2")
       Virtual   (?A) (?A) (?A) (?A) (?A) (?A) (?A) (?A) (?A) (E")
                 (?A) (?A) (?A) (?A) (E") (A2")
 Beta  Orbitals:
       Occupied  (A1') (A1') (?A) (?A)
       Virtual   (?A) (?A) (?A) (?A) (?A) (?A) (?A) (?A) (?A) (E")
                 (?A) (?A) (?A) (?A) (A2") (E") (A2")
 Initial guess <Sx>= 0.0000 <Sy>= 0.0000 <Sz>= 0.5000 <S**2>= 0.7537 S= 0.5018
 ExpMin= 1.61D-01 ExpMax= 3.05D+03 ExpMxC= 4.57D+02 IAcc=1 IRadAn=         1 AccDes= 0.00D+00
 Harris functional with IExCor=  402 and IRadAn=       1 diagonalized for initial guess.
 HarFok:  IExCor=  402 AccDes= 0.00D+00 IRadAn=         1 IDoV= 1 UseB2=F ITyADJ=14
 ICtDFT=  3500011 ScaDFX=  1.000000  1.000000  1.000000  1.000000
 FoFCou: FMM=F IPFlag=           0 FMFlag=      100000 FMFlg1=           0
         NFxFlg=           0 DoJE=T BraDBF=F KetDBF=T FulRan=T
         wScrn=  0.000000 ICntrl=     500 IOpCl=  0 I1Cent=   200000004 NGrid=           0
         NMat0=    1 NMatS0=      1 NMatT0=    0 NMatD0=    1 NMtDS0=    0 NMtDT0=    0
 Petite list used in FoFCou.
 Keep R1 and R2 ints in memory in symmetry-blocked form, NReq=895012.
 Requested convergence on RMS density matrix=1.00D-08 within  64 cycles.
 Requested convergence on MAX density matrix=1.00D-06.
 Requested convergence on             energy=1.00D-06.
 No special actions if energy rises.
 Integral accuracy reduced to 1.0D-05 until final iterations.
 Initial convergence to 1.0D-05 achieved.  Increase integral accuracy.
 SCF Done:  E(UB3LYP) =  -39.8382906598     A.U. after    9 cycles
            NFock=  9  Conv=0.81D-08     -V/T= 2.0102
 <Sx>= 0.0000 <Sy>= 0.0000 <Sz>= 0.5000 <S**2>= 0.7538 S= 0.5019
 <L.S>= 0.000000000000E+00
 Annihilation of the first spin contaminant:
 S**2 before annihilation     0.7538,   after     0.7500
 QCSCF skips out because SCF is already converged.
 Calling FoFJK, ICntrl=      2127 FMM=F ISym2X=1 I1Cent= 0 IOpClX= 1 NMat=1 NMatS=1 NMatT=0.
 ***** Axes restored to original set *****
 -------------------------------------------------------------------
 Center     Atomic                   Forces (Hartrees/Bohr)
 Number     Number              X              Y              Z
 -------------------------------------------------------------------
      1        6           0.000000000    0.000000000    0.000000000
      2        1           0.000000000    0.000623136    0.000000000
      3        1           0.000539651   -0.000311568    0.000000000
      4        1          -0.000539651   -0.000311568    0.000000000
 -------------------------------------------------------------------
 Cartesian Forces:  Max     0.000623136 RMS     0.000311568

 GradGradGradGradGradGradGradGradGradGradGradGradGradGradGradGradGradGrad
 Berny optimization.
 Using GEDIIS/GDIIS optimizer.
 FormGI is forming the generalized inverse of G from B-inverse, IUseBI=4.
 Internal  Forces:  Max     0.000623136 RMS     0.000407938
 Search for a local minimum.
 Step number   2 out of a maximum of   20
 All quantities printed in internal units (Hartrees-Bohrs-Radians)
 Mixed Optimization -- En-DIIS/RFO-DIIS
 Update second derivatives using D2CorX and points    1    2
 DE= -1.20D-03 DEPred=-1.28D-03 R= 9.36D-01
 TightC=F SS=  1.41D+00  RLast= 8.08D-02 DXNew= 5.0454D-01 2.4254D-01
 Trust test= 9.36D-01 RLast= 8.08D-02 DXMaxT set to 3.00D-01
 The second derivative matrix:
                          R1        R2        R3        A1        A2
           R1           0.39195
           R2           0.00530   0.39195
           R3           0.00530   0.00530   0.39195
           A1           0.00000   0.00000   0.00000   0.16000
           A2           0.00000   0.00000   0.00000   0.00000   0.16000
           A3           0.00000   0.00000   0.00000   0.00000   0.00000
           D1           0.00000   0.00000   0.00000   0.00000   0.00000
                          A3        D1
           A3           0.16000
           D1           0.00000   0.00646
 ITU=  1  0
 Use linear search instead of GDIIS.
     Eigenvalues ---    0.00646   0.16000   0.16000   0.38665   0.38665
     Eigenvalues ---    0.40255
 RFO step:  Lambda= 0.00000000D+00 EMin= 6.45844204D-03
 Quartic linear search produced a step of -0.03553.
 Iteration  1 RMS(Cart)=  0.00108559 RMS(Int)=  0.00000000
 Iteration  2 RMS(Cart)=  0.00000000 RMS(Int)=  0.00000000
 ClnCor:  largest displacement from symmetrization is 4.99D-15 for atom     4.
 Variable       Old X    -DE/DX   Delta X   Delta X   Delta X     New X
                                 (Linear)    (Quad)   (Total)
    R1        2.04776  -0.00062  -0.00166   0.00000  -0.00166   2.04610
    R2        2.04776  -0.00062  -0.00166   0.00000  -0.00166   2.04610
    R3        2.04776  -0.00062  -0.00166   0.00000  -0.00166   2.04610
    A1        2.09440   0.00000   0.00000   0.00000   0.00000   2.09440
    A2        2.09440   0.00000   0.00000   0.00000   0.00000   2.09440
    A3        2.09440   0.00000   0.00000   0.00000   0.00000   2.09440
    D1        3.14159   0.00000   0.00000   0.00000   0.00000   3.14159
         Item               Value     Threshold  Converged?
 Maximum Force            0.000623     0.000450     NO 
 RMS     Force            0.000408     0.000300     NO 
 Maximum Displacement     0.001658     0.001800     YES
 RMS     Displacement     0.001086     0.001200     YES
 Predicted change in Energy=-1.439568D-06
 GradGradGradGradGradGradGradGradGradGradGradGradGradGradGradGradGradGrad

                          Input orientation:                          
 ---------------------------------------------------------------------
 Center     Atomic      Atomic             Coordinates (Angstroms)
 Number     Number       Type             X           Y           Z
 ---------------------------------------------------------------------
      1          6           0        0.000000    0.000000    0.000000
      2          1           0        0.000000   -1.082752    0.000000
      3          1           0       -0.937691    0.541376    0.000000
      4          1           0        0.937691    0.541376    0.000000
 ---------------------------------------------------------------------
                    Distance matrix (angstroms):
                    1          2          3          4
     1  C    0.000000
     2  H    1.082752   0.000000
     3  H    1.082752   1.875381   0.000000
     4  H    1.082752   1.875381   1.875381   0.000000
 Stoichiometry    CH3(2)
 Framework group  D3H[O(C),3C2(H)]
 Deg. of freedom     1
 Full point group                 D3H     NOp  12
 Largest Abelian subgroup         C2V     NOp   4
 Largest concise Abelian subgroup C2      NOp   2
                         Standard orientation:                         
 ---------------------------------------------------------------------
 Center     Atomic      Atomic             Coordinates (Angstroms)
 Number     Number       Type             X           Y           Z
 ---------------------------------------------------------------------
      1          6           0        0.000000    0.000000    0.000000
      2          1           0        0.000000    1.082752    0.000000
      3          1           0       -0.937691   -0.541376    0.000000
      4          1           0        0.937691   -0.541376    0.000000
 ---------------------------------------------------------------------
 Rotational constants (GHZ):    285.1563071    285.1563071    142.5781536
 Basis read from rwf:  (6D, 7F)
 There are    12 symmetry adapted cartesian basis functions of A1  symmetry.
 There are     1 symmetry adapted cartesian basis functions of A2  symmetry.
 There are     5 symmetry adapted cartesian basis functions of B1  symmetry.
 There are     3 symmetry adapted cartesian basis functions of B2  symmetry.
 There are    12 symmetry adapted basis functions of A1  symmetry.
 There are     1 symmetry adapted basis functions of A2  symmetry.
 There are     5 symmetry adapted basis functions of B1  symmetry.
 There are     3 symmetry adapted basis functions of B2  symmetry.
    21 basis functions,    40 primitive gaussians,    21 cartesian basis functions
     5 alpha electrons        4 beta electrons
       nuclear repulsion energy         9.6437168407 Hartrees.
 NAtoms=    4 NActive=    4 NUniq=    2 SFac= 4.00D+00 NAtFMM=   60 NAOKFM=F Big=F
 Integral buffers will be    131072 words long.
 Raffenetti 2 integral format.
 Two-electron integral symmetry is turned on.
 One-electron integrals computed using PRISM.
 NBasis=    21 RedAO= T EigKep=  4.81D-02  NBF=    12     1     5     3
 NBsUse=    21 1.00D-06 EigRej= -1.00D+00 NBFU=    12     1     5     3
 Initial guess from the checkpoint file:  "ch3.chk"
 B after Tr=     0.000000    0.000000    0.000000
         Rot=    1.000000    0.000000    0.000000    0.000000 Ang=   0.00 deg.
 Initial guess orbital symmetries:
 Alpha Orbitals:
       Occupied  (A1') (A1') (?A) (?A) (A2")
       Virtual   (?A) (?A) (?A) (?A) (?A) (?A) (?A) (?A) (?A) (E")
                 (?A) (?A) (?A) (?A) (E") (A2")
 Beta  Orbitals:
       Occupied  (A1') (A1') (?A) (?A)
       Virtual   (?A) (?A) (?A) (?A) (?A) (?A) (?A) (?A) (?A) (E")
                 (?A) (?A) (?A) (?A) (A2") (E") (A2")
 Initial guess <Sx>= 0.0000 <Sy>= 0.0000 <Sz>= 0.5000 <S**2>= 0.7538 S= 0.5019
 Keep R1 and R2 ints in memory in symmetry-blocked form, NReq=895012.
 Requested convergence on RMS density matrix=1.00D-08 within  64 cycles.
 Requested convergence on MAX density matrix=1.00D-06.
 Requested convergence on             energy=1.00D-06.
 No special actions if energy rises.
 SCF Done:  E(UB3LYP) =  -39.8382922102     A.U. after    7 cycles
            NFock=  7  Conv=0.65D-09     -V/T= 2.0101
 <Sx>= 0.0000 <Sy>= 0.0000 <Sz>= 0.5000 <S**2>= 0.7538 S= 0.5019
 <L.S>= 0.000000000000E+00
 Annihilation of the first spin contaminant:
 S**2 before annihilation     0.7538,   after     0.7500
 QCSCF skips out because SCF is already converged.
 Calling FoFJK, ICntrl=      2127 FMM=F ISym2X=1 I1Cent= 0 IOpClX= 1 NMat=1 NMatS=1 NMatT=0.
 ***** Axes restored to original set *****
 -------------------------------------------------------------------
 Center     Atomic                   Forces (Hartrees/Bohr)
 Number     Number              X              Y              Z
 -------------------------------------------------------------------
      1        6           0.000000000    0.000000000    0.000000000
      2        1           0.000000000   -0.000000351    0.000000000
      3        1          -0.000000304    0.000000176    0.000000000
      4        1           0.000000304    0.000000176    0.000000000
 -------------------------------------------------------------------
 Cartesian Forces:  Max     0.000000351 RMS     0.000000176

 GradGradGradGradGradGradGradGradGradGradGradGradGradGradGradGradGradGrad
 Berny optimization.
 Using GEDIIS/GDIIS optimizer.
 FormGI is forming the generalized inverse of G from B-inverse, IUseBI=4.
 Internal  Forces:  Max     0.000000351 RMS     0.000000230
 Search for a local minimum.
 Step number   3 out of a maximum of   20
 All quantities printed in internal units (Hartrees-Bohrs-Radians)
 Mixed Optimization -- En-DIIS/RFO-DIIS
 Swapping is turned off.
 Update second derivatives using D2CorX and points    1    2    3
 DE= -1.55D-06 DEPred=-1.44D-06 R= 1.08D+00
 TightC=F SS=  1.41D+00  RLast= 2.87D-03 DXNew= 5.0454D-01 8.6166D-03
 Trust test= 1.08D+00 RLast= 2.87D-03 DXMaxT set to 3.00D-01
 The second derivative matrix:
                          R1        R2        R3        A1        A2
           R1           0.38310
           R2          -0.00355   0.38310
           R3          -0.00355  -0.00355   0.38310
           A1           0.00000   0.00000   0.00000   0.16000
           A2           0.00000   0.00000   0.00000   0.00000   0.16000
           A3           0.00000   0.00000   0.00000   0.00000   0.00000
           D1           0.00000   0.00000   0.00000   0.00000   0.00000
                          A3        D1
           A3           0.16000
           D1           0.00000   0.00646
 ITU=  1  1  0
     Eigenvalues ---    0.00646   0.16000   0.16000   0.37599   0.38665
     Eigenvalues ---    0.38665
 En-DIIS/RFO-DIIS IScMMF=        0 using points:     3    2
 RFO step:  Lambda= 0.00000000D+00.
 DidBck=F Rises=F RFO-DIIS coefs:    0.99944    0.00056
 Iteration  1 RMS(Cart)=  0.00000061 RMS(Int)=  0.00000000
 ClnCor:  largest displacement from symmetrization is 7.93D-15 for atom     4.
 Variable       Old X    -DE/DX   Delta X   Delta X   Delta X     New X
                                 (Linear)    (Quad)   (Total)
    R1        2.04610   0.00000   0.00000   0.00000   0.00000   2.04611
    R2        2.04610   0.00000   0.00000   0.00000   0.00000   2.04611
    R3        2.04610   0.00000   0.00000   0.00000   0.00000   2.04611
    A1        2.09440   0.00000   0.00000   0.00000   0.00000   2.09440
    A2        2.09440   0.00000   0.00000   0.00000   0.00000   2.09440
    A3        2.09440   0.00000   0.00000   0.00000   0.00000   2.09440
    D1        3.14159   0.00000   0.00000   0.00000   0.00000   3.14159
         Item               Value     Threshold  Converged?
 Maximum Force            0.000000     0.000450     YES
 RMS     Force            0.000000     0.000300     YES
 Maximum Displacement     0.000001     0.001800     YES
 RMS     Displacement     0.000001     0.001200     YES
 Predicted change in Energy=-4.922188D-13
 Optimization completed.
    -- Stationary point found.
                           ----------------------------
                           !   Optimized Parameters   !
                           ! (Angstroms and Degrees)  !
 --------------------------                            --------------------------
 ! Name  Definition              Value          Derivative Info.                !
 --------------------------------------------------------------------------------
 ! R1    R(1,2)                  1.0828         -DE/DX =    0.0                 !
 ! R2    R(1,3)                  1.0828         -DE/DX =    0.0                 !
 ! R3    R(1,4)                  1.0828         -DE/DX =    0.0                 !
 ! A1    A(2,1,3)              120.0            -DE/DX =    0.0                 !
 ! A2    A(2,1,4)              120.0            -DE/DX =    0.0                 !
 ! A3    A(3,1,4)              120.0            -DE/DX =    0.0                 !
 ! D1    D(2,1,4,3)            180.0            -DE/DX =    0.0                 !
 --------------------------------------------------------------------------------
 GradGradGradGradGradGradGradGradGradGradGradGradGradGradGradGradGradGrad

                          Input orientation:                          
 ---------------------------------------------------------------------
 Center     Atomic      Atomic             Coordinates (Angstroms)
 Number     Number       Type             X           Y           Z
 ---------------------------------------------------------------------
      1          6           0        0.000000    0.000000    0.000000
      2          1           0        0.000000   -1.082752    0.000000
      3          1           0       -0.937691    0.541376    0.000000
      4          1           0        0.937691    0.541376    0.000000
 ---------------------------------------------------------------------
                    Distance matrix (angstroms):
                    1          2          3          4
     1  C    0.000000
     2  H    1.082752   0.000000
     3  H    1.082752   1.875381   0.000000
     4  H    1.082752   1.875381   1.875381   0.000000
 Stoichiometry    CH3(2)
 Framework group  D3H[O(C),3C2(H)]
 Deg. of freedom     1
 Full point group                 D3H     NOp  12
 Largest Abelian subgroup         C2V     NOp   4
 Largest concise Abelian subgroup C2      NOp   2
                         Standard orientation:                         
 ---------------------------------------------------------------------
 Center     Atomic      Atomic             Coordinates (Angstroms)
 Number     Number       Type             X           Y           Z
 ---------------------------------------------------------------------
      1          6           0        0.000000    0.000000    0.000000
      2          1           0        0.000000    1.082752    0.000000
      3          1           0       -0.937691   -0.541376    0.000000
      4          1           0        0.937691   -0.541376    0.000000
 ---------------------------------------------------------------------
 Rotational constants (GHZ):    285.1563071    285.1563071    142.5781536

 **********************************************************************

            Population analysis using the SCF density.

 **********************************************************************

 Orbital symmetries:
 Alpha Orbitals:
       Occupied  (A1') (A1') (?A) (?A) (A2")
       Virtual   (A1') (?A) (?A) (A2") (?A) (?A) (A1') (?A) (?A)
                 (A1') (E") (E") (A1') (?A) (?A) (A1')
 Beta  Orbitals:
       Occupied  (A1') (A1') (?A) (?A)
       Virtual   (A2") (A1') (?A) (?A) (?A) (?A) (A2") (A1') (?A)
                 (?A) (A1') (E") (E") (A1') (?A) (?A) (A1')
 Unable to determine electronic state:  an orbital has unidentified symmetry.
 Alpha  occ. eigenvalues --  -10.19156  -0.68121  -0.41641  -0.41641  -0.22427
 Alpha virt. eigenvalues --    0.11459   0.18204   0.18204   0.53684   0.54497
 Alpha virt. eigenvalues --    0.54497   0.68301   0.91435   0.91435   0.95804
 Alpha virt. eigenvalues --    1.65011   1.65011   2.01065   2.18673   2.18673
 Alpha virt. eigenvalues --    4.06654
  Beta  occ. eigenvalues --  -10.17745  -0.64054  -0.40678  -0.40678
  Beta virt. eigenvalues --   -0.04794   0.13072   0.18755   0.18755   0.55312
  Beta virt. eigenvalues --    0.55312   0.61533   0.70962   0.91922   0.91922
  Beta virt. eigenvalues --    0.98685   1.72172   1.72172   2.09709   2.19800
  Beta virt. eigenvalues --    2.19800   4.10439
          Condensed to atoms (all electrons):
               1          2          3          4
     1  C    5.344713   0.380952   0.380952   0.380952
     2  H    0.380952   0.516036  -0.029756  -0.029756
     3  H    0.380952  -0.029756   0.516036  -0.029756
     4  H    0.380952  -0.029756  -0.029756   0.516036
          Atomic-Atomic Spin Densities.
               1          2          3          4
     1  C    1.182397  -0.008874  -0.008874  -0.008874
     2  H   -0.008874  -0.044890   0.000919   0.000919
     3  H   -0.008874   0.000919  -0.044890   0.000919
     4  H   -0.008874   0.000919   0.000919  -0.044890
 Mulliken charges and spin densities:
               1          2
     1  C   -0.487569   1.155775
     2  H    0.162523  -0.051925
     3  H    0.162523  -0.051925
     4  H    0.162523  -0.051925
 Sum of Mulliken charges =   0.00000   1.00000
 Mulliken charges and spin densities with hydrogens summed into heavy atoms:
               1          2
     1  C    0.000000   1.000000
 Electronic spatial extent (au):  <R**2>=             29.4011
 Charge=              0.0000 electrons
 Dipole moment (field-independent basis, Debye):
    X=              0.0000    Y=              0.0000    Z=              0.0000  Tot=              0.0000
 Quadrupole moment (field-independent basis, Debye-Ang):
   XX=             -7.0058   YY=             -7.0058   ZZ=             -8.6407
   XY=              0.0000   XZ=              0.0000   YZ=              0.0000
 Traceless Quadrupole moment (field-independent basis, Debye-Ang):
   XX=              0.5450   YY=              0.5450   ZZ=             -1.0900
   XY=              0.0000   XZ=              0.0000   YZ=              0.0000
 Octapole moment (field-independent basis, Debye-Ang**2):
  XXX=              0.0000  YYY=              0.7994  ZZZ=              0.0000  XYY=              0.0000
  XXY=             -0.7994  XXZ=              0.0000  XZZ=              0.0000  YZZ=              0.0000
  YYZ=              0.0000  XYZ=              0.0000
 Hexadecapole moment (field-independent basis, Debye-Ang**3):
 XXXX=            -13.9317 YYYY=            -13.9317 ZZZZ=             -8.9746 XXXY=              0.0000
 XXXZ=              0.0000 YYYX=              0.0000 YYYZ=              0.0000 ZZZX=              0.0000
 ZZZY=              0.0000 XXYY=             -4.6439 XXZZ=             -4.1499 YYZZ=             -4.1499
 XXYZ=              0.0000 YYXZ=              0.0000 ZZXY=              0.0000
 N-N= 9.643716840664D+00 E-N=-1.110573005629D+02  KE= 3.943814252917D+01
 Symmetry A1   KE= 3.633582032605D+01
 Symmetry A2   KE= 3.562819770597D-33
 Symmetry B1   KE= 1.958585121200D+00
 Symmetry B2   KE= 1.143737081924D+00
                          Isotropic Fermi Contact Couplings
        Atom                 a.u.       MegaHertz       Gauss      10(-4) cm-1
     1  C(13)              0.11050     124.22173      44.32540      41.43591
     2  H(1)              -0.01588     -70.98055     -25.32763     -23.67656
     3  H(1)              -0.01588     -70.98055     -25.32763     -23.67656
     4  H(1)              -0.01588     -70.98055     -25.32763     -23.67656
 --------------------------------------------------------
       Center         ----  Spin Dipole Couplings  ----
                      3XX-RR        3YY-RR        3ZZ-RR
 --------------------------------------------------------
     1   Atom       -0.547591     -0.547591      1.095181
     2   Atom       -0.073171      0.078740     -0.005569
     3   Atom        0.040762     -0.035193     -0.005569
     4   Atom        0.040762     -0.035193     -0.005569
 --------------------------------------------------------
                        XY            XZ            YZ
 --------------------------------------------------------
     1   Atom        0.000000      0.000000      0.000000
     2   Atom        0.000000      0.000000      0.000000
     3   Atom        0.065779      0.000000      0.000000
     4   Atom       -0.065779      0.000000      0.000000
 --------------------------------------------------------


 ---------------------------------------------------------------------------------
              Anisotropic Spin Dipole Couplings in Principal Axis System
 ---------------------------------------------------------------------------------

       Atom             a.u.   MegaHertz   Gauss  10(-4) cm-1        Axes

              Baa    -0.5476   -73.481   -26.220   -24.511  0.7982 -0.6024  0.0000
     1 C(13)  Bbb    -0.5476   -73.481   -26.220   -24.511  0.6024  0.7982  0.0000
              Bcc     1.0952   146.963    52.440    49.022  0.0000  0.0000  1.0000
 
              Baa    -0.0732   -39.040   -13.931   -13.022  1.0000  0.0000  0.0000
     2 H(1)   Bbb    -0.0056    -2.971    -1.060    -0.991  0.0000  0.0000  1.0000
              Bcc     0.0787    42.012    14.991    14.014  0.0000  1.0000  0.0000
 
              Baa    -0.0732   -39.040   -13.931   -13.022 -0.5000  0.8660  0.0000
     3 H(1)   Bbb    -0.0056    -2.971    -1.060    -0.991  0.0000  0.0000  1.0000
              Bcc     0.0787    42.012    14.991    14.014  0.8660  0.5000  0.0000
 
              Baa    -0.0732   -39.040   -13.931   -13.022  0.5000  0.8660  0.0000
     4 H(1)   Bbb    -0.0056    -2.971    -1.060    -0.991  0.0000  0.0000  1.0000
              Bcc     0.0787    42.012    14.991    14.014  0.8660 -0.5000  0.0000
 

 ---------------------------------------------------------------------------------

 1\1\GINC-GAMBA\FOpt\UB3LYP\Gen\C1H3(2)\IRIKURA\17-May-2017\0\\# B3LYP/
 GEN gfinput OPT FREQ scf=xqc 6D\\BEB step 1: geom and freqs for ch3\\0
 ,2\C,0.,-0.0000000011,0.\H,0.000000002,-1.0827517802,0.\H,-0.937690547
 6,0.5413758867,0.\H,0.9376905457,0.5413758901,0.\\Version=ES64L-G09Rev
 D.01\HF=-39.8382922\S2=0.753765\S2-1=0.\S2A=0.750007\RMSD=6.527e-10\RM
 SF=1.756e-07\Dipole=0.,0.,0.\Quadrupole=0.4051763,0.4051763,-0.8103526
 ,0.,0.,0.\PG=D03H [O(C1),3C2(H1)]\\@


 Once you get people laughing, they're
 listening and you can tell them almost anything.
                                 -- Herb Gardner
 Job cpu time:       0 days  0 hours  0 minutes 44.8 seconds.
 File lengths (MBytes):  RWF=      5 Int=      0 D2E=      0 Chk=      1 Scr=      1
 Normal termination of Gaussian 09 at Wed May 17 12:59:30 2017.
 Link1:  Proceeding to internal job step number  2.
 ------------------------------------------------------------------
 #N Geom=AllCheck Guess=TCheck SCRF=Check GenChk UB3LYP/ChkBas Freq
 ------------------------------------------------------------------
 1/10=4,29=7,30=1,38=1,40=1/1,3;
 2/12=2,40=1/2;
 3/5=7,6=2,8=2,11=2,14=-4,16=1,24=10,25=1,30=1,67=1,70=2,71=2,74=-5,82=7,116=2,140=1/1,2,3;
 4/5=101/1;
 5/5=2,8=3,13=1,98=1/2,8;
 8/6=4,10=90,11=11/1;
 11/6=1,8=1,9=11,15=111,16=1/1,2,10;
 10/6=1/2;
 6/7=2,8=2,9=2,10=2,18=1,28=1/1;
 7/8=1,10=1,25=1/1,2,3,16;
 1/10=4,30=1/3;
 99//99;
 Structure from the checkpoint file:  "ch3.chk"
 ----------------------------------
 BEB step 1: geom and freqs for ch3
 ----------------------------------
 Charge =  0 Multiplicity = 2
 Redundant internal coordinates found in file.
 C,0,0.,-0.0000000011,0.
 H,0,0.000000002,-1.0827517802,0.
 H,0,-0.9376905476,0.5413758867,0.
 H,0,0.9376905457,0.5413758901,0.
 Recover connectivity data from disk.

 GradGradGradGradGradGradGradGradGradGradGradGradGradGradGradGradGradGrad
 Berny optimization.
 Initialization pass.
                           ----------------------------
                           !    Initial Parameters    !
                           ! (Angstroms and Degrees)  !
 --------------------------                            --------------------------
 ! Name  Definition              Value          Derivative Info.                !
 --------------------------------------------------------------------------------
 ! R1    R(1,2)                  1.0828         calculate D2E/DX2 analytically  !
 ! R2    R(1,3)                  1.0828         calculate D2E/DX2 analytically  !
 ! R3    R(1,4)                  1.0828         calculate D2E/DX2 analytically  !
 ! A1    A(2,1,3)              120.0            calculate D2E/DX2 analytically  !
 ! A2    A(2,1,4)              120.0            calculate D2E/DX2 analytically  !
 ! A3    A(3,1,4)              120.0            calculate D2E/DX2 analytically  !
 ! D1    D(2,1,4,3)            180.0            calculate D2E/DX2 analytically  !
 --------------------------------------------------------------------------------
 Trust Radius=3.00D-01 FncErr=1.00D-07 GrdErr=1.00D-07
 Number of steps in this run=      2 maximum allowed number of steps=      2.
 GradGradGradGradGradGradGradGradGradGradGradGradGradGradGradGradGradGrad

                          Input orientation:                          
 ---------------------------------------------------------------------
 Center     Atomic      Atomic             Coordinates (Angstroms)
 Number     Number       Type             X           Y           Z
 ---------------------------------------------------------------------
      1          6           0        0.000000    0.000000    0.000000
      2          1           0        0.000000   -1.082752    0.000000
      3          1           0       -0.937691    0.541376    0.000000
      4          1           0        0.937691    0.541376    0.000000
 ---------------------------------------------------------------------
                    Distance matrix (angstroms):
                    1          2          3          4
     1  C    0.000000
     2  H    1.082752   0.000000
     3  H    1.082752   1.875381   0.000000
     4  H    1.082752   1.875381   1.875381   0.000000
 Stoichiometry    CH3(2)
 Framework group  D3H[O(C),3C2(H)]
 Deg. of freedom     1
 Full point group                 D3H     NOp  12
 Largest Abelian subgroup         C2V     NOp   4
 Largest concise Abelian subgroup C2      NOp   2
                         Standard orientation:                         
 ---------------------------------------------------------------------
 Center     Atomic      Atomic             Coordinates (Angstroms)
 Number     Number       Type             X           Y           Z
 ---------------------------------------------------------------------
      1          6           0        0.000000    0.000000    0.000000
      2          1           0        0.000000    1.082752    0.000000
      3          1           0       -0.937691   -0.541376    0.000000
      4          1           0        0.937691   -0.541376    0.000000
 ---------------------------------------------------------------------
 Rotational constants (GHZ):    285.1563071    285.1563071    142.5781536
 Basis read from chk: "ch3.chk" (6D, 7F)
 AO basis set in the form of general basis input (Overlap normalization):
      1 0
 S   6 1.00       0.000000000000
      0.3047524880D+04  0.1834737132D-02
      0.4573695180D+03  0.1403732281D-01
      0.1039486850D+03  0.6884262226D-01
      0.2921015530D+02  0.2321844432D+00
      0.9286662960D+01  0.4679413484D+00
      0.3163926960D+01  0.3623119853D+00
 SP   3 1.00       0.000000000000
      0.7868272350D+01 -0.1193324198D+00  0.6899906659D-01
      0.1881288540D+01 -0.1608541517D+00  0.3164239610D+00
      0.5442492580D+00  0.1143456438D+01  0.7443082909D+00
 SP   1 1.00       0.000000000000
      0.1687144782D+00  0.1000000000D+01  0.1000000000D+01
 D   1 1.00       0.000000000000
      0.8000000000D+00  0.1000000000D+01
 ****
      2 0
 S   3 1.00       0.000000000000
      0.1873113696D+02  0.3349460434D-01
      0.2825394365D+01  0.2347269535D+00
      0.6401216923D+00  0.8137573261D+00
 S   1 1.00       0.000000000000
      0.1612777588D+00  0.1000000000D+01
 ****
      3 0
 S   3 1.00       0.000000000000
      0.1873113696D+02  0.3349460434D-01
      0.2825394365D+01  0.2347269535D+00
      0.6401216923D+00  0.8137573261D+00
 S   1 1.00       0.000000000000
      0.1612777588D+00  0.1000000000D+01
 ****
      4 0
 S   3 1.00       0.000000000000
      0.1873113696D+02  0.3349460434D-01
      0.2825394365D+01  0.2347269535D+00
      0.6401216923D+00  0.8137573261D+00
 S   1 1.00       0.000000000000
      0.1612777588D+00  0.1000000000D+01
 ****

 There are    12 symmetry adapted cartesian basis functions of A1  symmetry.
 There are     1 symmetry adapted cartesian basis functions of A2  symmetry.
 There are     5 symmetry adapted cartesian basis functions of B1  symmetry.
 There are     3 symmetry adapted cartesian basis functions of B2  symmetry.
 There are    12 symmetry adapted basis functions of A1  symmetry.
 There are     1 symmetry adapted basis functions of A2  symmetry.
 There are     5 symmetry adapted basis functions of B1  symmetry.
 There are     3 symmetry adapted basis functions of B2  symmetry.
    21 basis functions,    40 primitive gaussians,    21 cartesian basis functions
     5 alpha electrons        4 beta electrons
       nuclear repulsion energy         9.6437168407 Hartrees.
 NAtoms=    4 NActive=    4 NUniq=    2 SFac= 4.00D+00 NAtFMM=   60 NAOKFM=F Big=F
 Integral buffers will be    131072 words long.
 Raffenetti 2 integral format.
 Two-electron integral symmetry is turned on.
 One-electron integrals computed using PRISM.
 NBasis=    21 RedAO= T EigKep=  4.81D-02  NBF=    12     1     5     3
 NBsUse=    21 1.00D-06 EigRej= -1.00D+00 NBFU=    12     1     5     3
 Initial guess from the checkpoint file:  "ch3.chk"
 B after Tr=     0.000000    0.000000    0.000000
         Rot=    1.000000    0.000000    0.000000    0.000000 Ang=   0.00 deg.
 Initial guess orbital symmetries:
 Alpha Orbitals:
       Occupied  (A1') (A1') (?A) (?A) (A2")
       Virtual   (A1') (?A) (?A) (A2") (?A) (?A) (A1') (?A) (?A)
                 (A1') (E") (E") (A1') (?A) (?A) (A1')
 Beta  Orbitals:
       Occupied  (A1') (A1') (?A) (?A)
       Virtual   (A2") (A1') (?A) (?A) (?A) (?A) (A2") (A1') (?A)
                 (?A) (A1') (E") (E") (A1') (?A) (?A) (A1')
 Initial guess <Sx>= 0.0000 <Sy>= 0.0000 <Sz>= 0.5000 <S**2>= 0.7538 S= 0.5019
 Keep R1 and R2 ints in memory in symmetry-blocked form, NReq=895012.
 Requested convergence on RMS density matrix=1.00D-08 within  64 cycles.
 Requested convergence on MAX density matrix=1.00D-06.
 Requested convergence on             energy=1.00D-06.
 No special actions if energy rises.
 Skip diagonalization as Alpha Fock matrix is already diagonal.
 Skip diagonalization as Beta Fock matrix is already diagonal.
 SCF Done:  E(UB3LYP) =  -39.8382922102     A.U. after    1 cycles
            NFock=  1  Conv=0.70D-18     -V/T= 2.0101
 <Sx>= 0.0000 <Sy>= 0.0000 <Sz>= 0.5000 <S**2>= 0.7538 S= 0.5019
 <L.S>= 0.000000000000E+00
 Annihilation of the first spin contaminant:
 S**2 before annihilation     0.7538,   after     0.7500
 QCSCF skips out because SCF is already converged.
 DoSCS=F DFT=T ScalE2(SS,OS)=  1.000000  1.000000
 Range of M.O.s used for correlation:     1    21
 NBasis=    21 NAE=     5 NBE=     4 NFC=     0 NFV=     0
 NROrb=     21 NOA=     5 NOB=     4 NVA=    16 NVB=    17
 Symmetrizing basis deriv contribution to polar:
 IMax=3 JMax=2 DiffMx= 0.00D+00
 G2DrvN: will do     5 centers at a time, making    1 passes.
 Calling FoFCou, ICntrl=  3107 FMM=F I1Cent=   0 AccDes= 0.00D+00.
 End of G2Drv F.D. properties file   721 does not exist.
 End of G2Drv F.D. properties file   722 does not exist.
 End of G2Drv F.D. properties file   788 does not exist.
          IDoAtm=1111
          Differentiating once with respect to electric field.
                with respect to dipole field.
          Differentiating once with respect to nuclear coordinates.
 Keep R1 and R2 ints in memory in symmetry-blocked form, NReq=887166.
          There are     9 degrees of freedom in the 1st order CPHF.  IDoFFX=4 NUNeed=     9.
      9 vectors produced by pass  0 Test12= 1.64D-15 1.11D-08 XBig12= 1.11D+01 1.53D+00.
 AX will form     9 AO Fock derivatives at one time.
      9 vectors produced by pass  1 Test12= 1.64D-15 1.11D-08 XBig12= 2.15D-01 3.26D-01.
      9 vectors produced by pass  2 Test12= 1.64D-15 1.11D-08 XBig12= 5.98D-04 1.94D-02.
      9 vectors produced by pass  3 Test12= 1.64D-15 1.11D-08 XBig12= 1.35D-06 5.51D-04.
      9 vectors produced by pass  4 Test12= 1.64D-15 1.11D-08 XBig12= 2.67D-08 7.34D-05.
      7 vectors produced by pass  5 Test12= 1.64D-15 1.11D-08 XBig12= 7.40D-11 4.85D-06.
      2 vectors produced by pass  6 Test12= 1.64D-15 1.11D-08 XBig12= 1.79D-13 1.57D-07.
 InvSVY:  IOpt=1 It=  1 EMax= 4.44D-16
 Solved reduced A of dimension    54 with     9 vectors.
 Isotropic polarizability for W=    0.000000        9.60 Bohr**3.
 End of Minotr F.D. properties file   721 does not exist.
 End of Minotr F.D. properties file   722 does not exist.
 End of Minotr F.D. properties file   788 does not exist.

 **********************************************************************

            Population analysis using the SCF density.

 **********************************************************************

 Orbital symmetries:
 Alpha Orbitals:
       Occupied  (A1') (A1') (?A) (?A) (A2")
       Virtual   (A1') (?A) (?A) (A2") (?A) (?A) (A1') (?A) (?A)
                 (A1') (E") (E") (A1') (?A) (?A) (A1')
 Beta  Orbitals:
       Occupied  (A1') (A1') (?A) (?A)
       Virtual   (A2") (A1') (?A) (?A) (?A) (?A) (A2") (A1') (?A)
                 (?A) (A1') (E") (E") (A1') (?A) (?A) (A1')
 Unable to determine electronic state:  an orbital has unidentified symmetry.
 Alpha  occ. eigenvalues --  -10.19156  -0.68121  -0.41641  -0.41641  -0.22427
 Alpha virt. eigenvalues --    0.11459   0.18204   0.18204   0.53684   0.54497
 Alpha virt. eigenvalues --    0.54497   0.68301   0.91435   0.91435   0.95804
 Alpha virt. eigenvalues --    1.65011   1.65011   2.01065   2.18673   2.18673
 Alpha virt. eigenvalues --    4.06654
  Beta  occ. eigenvalues --  -10.17745  -0.64054  -0.40678  -0.40678
  Beta virt. eigenvalues --   -0.04794   0.13072   0.18755   0.18755   0.55312
  Beta virt. eigenvalues --    0.55312   0.61533   0.70962   0.91922   0.91922
  Beta virt. eigenvalues --    0.98685   1.72172   1.72172   2.09709   2.19800
  Beta virt. eigenvalues --    2.19800   4.10439
          Condensed to atoms (all electrons):
               1          2          3          4
     1  C    5.344713   0.380952   0.380952   0.380952
     2  H    0.380952   0.516036  -0.029756  -0.029756
     3  H    0.380952  -0.029756   0.516036  -0.029756
     4  H    0.380952  -0.029756  -0.029756   0.516036
          Atomic-Atomic Spin Densities.
               1          2          3          4
     1  C    1.182397  -0.008874  -0.008874  -0.008874
     2  H   -0.008874  -0.044890   0.000919   0.000919
     3  H   -0.008874   0.000919  -0.044890   0.000919
     4  H   -0.008874   0.000919   0.000919  -0.044890
 Mulliken charges and spin densities:
               1          2
     1  C   -0.487569   1.155775
     2  H    0.162523  -0.051925
     3  H    0.162523  -0.051925
     4  H    0.162523  -0.051925
 Sum of Mulliken charges =   0.00000   1.00000
 Mulliken charges and spin densities with hydrogens summed into heavy atoms:
               1          2
     1  C    0.000000   1.000000
 APT charges:
               1
     1  C   -0.124837
     2  H    0.041618
     3  H    0.041614
     4  H    0.041614
 Sum of APT charges =   0.00001
 APT charges with hydrogens summed into heavy atoms:
               1
     1  C    0.000008
 Electronic spatial extent (au):  <R**2>=             29.4011
 Charge=              0.0000 electrons
 Dipole moment (field-independent basis, Debye):
    X=              0.0000    Y=              0.0000    Z=              0.0000  Tot=              0.0000
 Quadrupole moment (field-independent basis, Debye-Ang):
   XX=             -7.0058   YY=             -7.0058   ZZ=             -8.6407
   XY=              0.0000   XZ=              0.0000   YZ=              0.0000
 Traceless Quadrupole moment (field-independent basis, Debye-Ang):
   XX=              0.5450   YY=              0.5450   ZZ=             -1.0900
   XY=              0.0000   XZ=              0.0000   YZ=              0.0000
 Octapole moment (field-independent basis, Debye-Ang**2):
  XXX=              0.0000  YYY=              0.7994  ZZZ=              0.0000  XYY=              0.0000
  XXY=             -0.7994  XXZ=              0.0000  XZZ=              0.0000  YZZ=              0.0000
  YYZ=              0.0000  XYZ=              0.0000
 Hexadecapole moment (field-independent basis, Debye-Ang**3):
 XXXX=            -13.9317 YYYY=            -13.9317 ZZZZ=             -8.9746 XXXY=              0.0000
 XXXZ=              0.0000 YYYX=              0.0000 YYYZ=              0.0000 ZZZX=              0.0000
 ZZZY=              0.0000 XXYY=             -4.6439 XXZZ=             -4.1499 YYZZ=             -4.1499
 XXYZ=              0.0000 YYXZ=              0.0000 ZZXY=              0.0000
 N-N= 9.643716840664D+00 E-N=-1.110573005629D+02  KE= 3.943814252917D+01
 Symmetry A1   KE= 3.633582032604D+01
 Symmetry A2   KE= 3.562819770597D-33
 Symmetry B1   KE= 1.958585121200D+00
 Symmetry B2   KE= 1.143737081924D+00
  Exact polarizability:  11.874   0.000  11.874   0.000   0.000   5.052
 Approx polarizability:  13.794   0.000  13.794   0.000   0.000   5.875
                          Isotropic Fermi Contact Couplings
        Atom                 a.u.       MegaHertz       Gauss      10(-4) cm-1
     1  C(13)              0.11050     124.22173      44.32540      41.43591
     2  H(1)              -0.01588     -70.98055     -25.32763     -23.67656
     3  H(1)              -0.01588     -70.98055     -25.32763     -23.67656
     4  H(1)              -0.01588     -70.98055     -25.32763     -23.67656
 --------------------------------------------------------
       Center         ----  Spin Dipole Couplings  ----
                      3XX-RR        3YY-RR        3ZZ-RR
 --------------------------------------------------------
     1   Atom       -0.547591     -0.547591      1.095181
     2   Atom       -0.073171      0.078740     -0.005569
     3   Atom        0.040762     -0.035193     -0.005569
     4   Atom        0.040762     -0.035193     -0.005569
 --------------------------------------------------------
                        XY            XZ            YZ
 --------------------------------------------------------
     1   Atom        0.000000      0.000000      0.000000
     2   Atom        0.000000      0.000000      0.000000
     3   Atom        0.065779      0.000000      0.000000
     4   Atom       -0.065779      0.000000      0.000000
 --------------------------------------------------------


 ---------------------------------------------------------------------------------
              Anisotropic Spin Dipole Couplings in Principal Axis System
 ---------------------------------------------------------------------------------

       Atom             a.u.   MegaHertz   Gauss  10(-4) cm-1        Axes

              Baa    -0.5476   -73.481   -26.220   -24.511  0.8018 -0.5976  0.0000
     1 C(13)  Bbb    -0.5476   -73.481   -26.220   -24.511  0.5976  0.8018  0.0000
              Bcc     1.0952   146.963    52.440    49.022  0.0000  0.0000  1.0000
 
              Baa    -0.0732   -39.040   -13.931   -13.022  1.0000  0.0000  0.0000
     2 H(1)   Bbb    -0.0056    -2.971    -1.060    -0.991  0.0000  0.0000  1.0000
              Bcc     0.0787    42.012    14.991    14.014  0.0000  1.0000  0.0000
 
              Baa    -0.0732   -39.040   -13.931   -13.022 -0.5000  0.8660  0.0000
     3 H(1)   Bbb    -0.0056    -2.971    -1.060    -0.991  0.0000  0.0000  1.0000
              Bcc     0.0787    42.012    14.991    14.014  0.8660  0.5000  0.0000
 
              Baa    -0.0732   -39.040   -13.931   -13.022  0.5000  0.8660  0.0000
     4 H(1)   Bbb    -0.0056    -2.971    -1.060    -0.991  0.0000  0.0000  1.0000
              Bcc     0.0787    42.012    14.991    14.014  0.8660 -0.5000  0.0000
 

 ---------------------------------------------------------------------------------

 Calling FoFJK, ICntrl=    100127 FMM=F ISym2X=1 I1Cent= 0 IOpClX= 1 NMat=1 NMatS=1 NMatT=0.
 Full mass-weighted force constant matrix:
 Low frequencies ---  -11.1668  -10.6793   -0.2131   -0.0050    3.2605   13.0085
 Low frequencies ---  453.0803 1431.0797 1431.0814
 Diagonal vibrational polarizability:
        0.0487549       0.0487657      11.7592971
 Harmonic frequencies (cm**-1), IR intensities (KM/Mole), Raman scattering
 activities (A**4/AMU), depolarization ratios for plane and unpolarized
 incident light, reduced masses (AMU), force constants (mDyne/A),
 and normal coordinates:
                      1                      2                      3
                     A2"                    ?A                     ?A
 Frequencies --    453.0803              1431.0797              1431.0814
 Red. masses --      1.2356                 1.1020                 1.1020
 Frc consts  --      0.1494                 1.3297                 1.3297
 IR Inten    --     89.7013                 2.3132                 2.3124
  Atom  AN      X      Y      Z        X      Y      Z        X      Y      Z
     1   6     0.00   0.00   0.14     0.00   0.09   0.00    -0.09   0.00   0.00
     2   1     0.00   0.00  -0.57     0.00   0.07   0.00     0.81   0.00   0.00
     3   1     0.00   0.00  -0.57     0.38  -0.59   0.00     0.15  -0.38   0.00
     4   1     0.00   0.00  -0.57    -0.38  -0.59   0.00     0.15   0.38   0.00
                      4                      5                      6
                     ?B                     ?A                     ?A
 Frequencies --   3143.7055              3318.3493              3318.3502
 Red. masses --      1.0078                 1.1185                 1.1185
 Frc consts  --      5.8684                 7.2563                 7.2563
 IR Inten    --      0.0000                 7.5162                 7.5162
  Atom  AN      X      Y      Z        X      Y      Z        X      Y      Z
     1   6     0.00   0.00   0.00     0.10   0.00   0.00     0.00   0.10   0.00
     2   1     0.00  -0.58   0.00     0.02   0.00   0.00     0.00  -0.81   0.00
     3   1     0.50   0.29   0.00    -0.61  -0.36   0.00    -0.36  -0.19   0.00
     4   1    -0.50   0.29   0.00    -0.61   0.36   0.00     0.36  -0.19   0.00

 -------------------
 - Thermochemistry -
 -------------------
 Temperature   298.150 Kelvin.  Pressure   1.00000 Atm.
 Atom     1 has atomic number  6 and mass  12.00000
 Atom     2 has atomic number  1 and mass   1.00783
 Atom     3 has atomic number  1 and mass   1.00783
 Atom     4 has atomic number  1 and mass   1.00783
 Molecular mass:    15.02348 amu.
 Principal axes and moments of inertia in atomic units:
                           1         2         3
     Eigenvalues --     6.32895   6.32895  12.65791
           X            0.70711   0.70711   0.00000
           Y            0.70711  -0.70711   0.00000
           Z            0.00000   0.00000   1.00000
 This molecule is an oblate symmetric top.
 Rotational symmetry number  6.
 Rotational temperatures (Kelvin)     13.68533    13.68533     6.84266
 Rotational constants (GHZ):         285.15631   285.15631   142.57815
 Zero-point vibrational energy      78329.4 (Joules/Mol)
                                   18.72117 (Kcal/Mol)
 Warning -- explicit consideration of   1 degrees of freedom as
           vibrations may cause significant error
 Vibrational temperatures:    651.88  2059.00  2059.00  4523.09  4774.36
          (Kelvin)           4774.36
 
 Zero-point correction=                           0.029834 (Hartree/Particle)
 Thermal correction to Energy=                    0.032941
 Thermal correction to Enthalpy=                  0.033885
 Thermal correction to Gibbs Free Energy=         0.011699
 Sum of electronic and zero-point Energies=            -39.808458
 Sum of electronic and thermal Energies=               -39.805351
 Sum of electronic and thermal Enthalpies=             -39.804407
 Sum of electronic and thermal Free Energies=          -39.826593
 
                     E (Thermal)             CV                S
                      KCal/Mol        Cal/Mol-Kelvin    Cal/Mol-Kelvin
 Total                   20.671              7.506             46.694
 Electronic               0.000              0.000              1.377
 Translational            0.889              2.981             34.068
 Rotational               0.889              2.981             10.431
 Vibrational             18.893              1.545              0.818
 Vibration     1          0.812              1.354              0.787
                       Q            Log10(Q)             Ln(Q)
 Total Bot       0.415689D-05         -5.381231        -12.390743
 Total V=0       0.219514D+09          8.341462         19.206927
 Vib (Bot)       0.213757D-13        -13.670080        -31.476523
 Vib (Bot)    1  0.377544D+00         -0.423032         -0.974067
 Vib (V=0)       0.112879D+01          0.052614          0.121147
 Vib (V=0)    1  0.112653D+01          0.051743          0.119142
 Electronic      0.200000D+01          0.301030          0.693147
 Translational   0.228882D+07          6.359611         14.643545
 Rotational      0.424823D+02          1.628208          3.749088
 ***** Axes restored to original set *****
 -------------------------------------------------------------------
 Center     Atomic                   Forces (Hartrees/Bohr)
 Number     Number              X              Y              Z
 -------------------------------------------------------------------
      1        6           0.000000000    0.000000000    0.000000000
      2        1           0.000000000   -0.000000351    0.000000000
      3        1          -0.000000304    0.000000176    0.000000000
      4        1           0.000000304    0.000000176    0.000000000
 -------------------------------------------------------------------
 Cartesian Forces:  Max     0.000000351 RMS     0.000000176
 FormGI is forming the generalized inverse of G from B-inverse, IUseBI=4.

 GradGradGradGradGradGradGradGradGradGradGradGradGradGradGradGradGradGrad
 Berny optimization.
 Internal  Forces:  Max     0.000000351 RMS     0.000000230
 Search for a local minimum.
 Step number   1 out of a maximum of    2
 All quantities printed in internal units (Hartrees-Bohrs-Radians)
 Second derivative matrix not updated -- analytic derivatives used.
 The second derivative matrix:
                          R1        R2        R3        A1        A2
           R1           0.37569
           R2           0.00062   0.37569
           R3           0.00062   0.00062   0.37569
           A1           0.00544   0.00544  -0.01087   0.06546
           A2           0.00544  -0.01087   0.00544  -0.03273   0.06546
           A3          -0.01087   0.00544   0.00544  -0.03273  -0.03273
           D1           0.00000   0.00000   0.00000   0.00000   0.00000
                          A3        D1
           A3           0.06546
           D1           0.00000   0.00654
 ITU=  0
     Eigenvalues ---    0.00654   0.09724   0.09724   0.37603   0.37603
     Eigenvalues ---    0.37693
 Angle between quadratic step and forces=  90.00 degrees.
 Linear search not attempted -- first point.
 Iteration  1 RMS(Cart)=  0.00000061 RMS(Int)=  0.00000000
 ClnCor:  largest displacement from symmetrization is 3.31D-12 for atom     4.
 Variable       Old X    -DE/DX   Delta X   Delta X   Delta X     New X
                                 (Linear)    (Quad)   (Total)
    R1        2.04610   0.00000   0.00000   0.00000   0.00000   2.04611
    R2        2.04610   0.00000   0.00000   0.00000   0.00000   2.04611
    R3        2.04610   0.00000   0.00000   0.00000   0.00000   2.04611
    A1        2.09440   0.00000   0.00000   0.00000   0.00000   2.09440
    A2        2.09440   0.00000   0.00000   0.00000   0.00000   2.09440
    A3        2.09440   0.00000   0.00000   0.00000   0.00000   2.09440
    D1        3.14159   0.00000   0.00000   0.00000   0.00000   3.14159
         Item               Value     Threshold  Converged?
 Maximum Force            0.000000     0.000450     YES
 RMS     Force            0.000000     0.000300     YES
 Maximum Displacement     0.000001     0.001800     YES
 RMS     Displacement     0.000001     0.001200     YES
 Predicted change in Energy=-4.909984D-13
 Optimization completed.
    -- Stationary point found.
                           ----------------------------
                           !   Optimized Parameters   !
                           ! (Angstroms and Degrees)  !
 --------------------------                            --------------------------
 ! Name  Definition              Value          Derivative Info.                !
 --------------------------------------------------------------------------------
 ! R1    R(1,2)                  1.0828         -DE/DX =    0.0                 !
 ! R2    R(1,3)                  1.0828         -DE/DX =    0.0                 !
 ! R3    R(1,4)                  1.0828         -DE/DX =    0.0                 !
 ! A1    A(2,1,3)              120.0            -DE/DX =    0.0                 !
 ! A2    A(2,1,4)              120.0            -DE/DX =    0.0                 !
 ! A3    A(3,1,4)              120.0            -DE/DX =    0.0                 !
 ! D1    D(2,1,4,3)            180.0            -DE/DX =    0.0                 !
 --------------------------------------------------------------------------------
 GradGradGradGradGradGradGradGradGradGradGradGradGradGradGradGradGradGrad

 1\1\GINC-GAMBA\Freq\UB3LYP\Gen\C1H3(2)\IRIKURA\17-May-2017\0\\#N Geom=
 AllCheck Guess=TCheck SCRF=Check GenChk UB3LYP/ChkBas Freq\\BEB step 1
 : geom and freqs for ch3\\0,2\C,0.,-0.0000000011,0.\H,0.000000002,-1.0
 827517802,0.\H,-0.9376905476,0.5413758867,0.\H,0.9376905457,0.54137589
 01,0.\\Version=ES64L-G09RevD.01\HF=-39.8382922\S2=0.753765\S2-1=0.\S2A
 =0.750007\RMSD=7.009e-19\RMSF=1.756e-07\ZeroPoint=0.0298341\Thermal=0.
 0329409\Dipole=0.,0.,0.\DipoleDeriv=0.0484338,0.,0.,0.,0.048418,0.,0.,
 0.,-0.4713625,0.0391802,0.,0.,0.,-0.0714722,0.,0.,0.,0.1571455,-0.0438
 081,0.0479108,0.,0.0479081,0.0115221,0.,0.,0.,0.157127,-0.0438081,-0.0
 479108,0.,-0.0479081,0.0115221,0.,0.,0.,0.157127\Polar=11.8741402,0.,1
 1.8744457,0.,0.,5.0521623\PG=D03H [O(C1),3C2(H1)]\NImag=0\\0.62675341,
 0.,0.62675394,0.,0.,0.01874014,-0.05656434,0.,0.,0.04691257,0.,-0.3612
 7481,0.,0.,0.37569549,0.,0.,-0.00625547,0.,0.,0.00208226,-0.28509586,0
 .13194326,0.,0.00482531,-0.00345002,0.,0.29349976,0.13194314,-0.132740
 76,0.,0.02429537,-0.00720976,0.,-0.14236718,0.12910830,0.,0.,-0.006248
 90,0.,0.,0.00208661,0.,0.,0.00208226,-0.28509586,-0.13194326,0.,0.0048
 2531,0.00345002,0.,-0.01322730,-0.01387269,0.,0.29349976,-0.13194315,-
 0.13274076,0.,-0.02429537,-0.00720976,0.,0.01387269,0.01084284,0.,0.14
 236718,0.12910830,0.,0.,-0.00624890,0.,0.,0.00208661,0.,0.,0.00208661,
 0.,0.,0.00208226\\0.,0.,0.,0.,0.00000035,0.,0.00000030,-0.00000018,0.,
 -0.00000030,-0.00000018,0.\\\@


 The best way to pay for a lovely moment is to enjoy it.
 -- Richard Bach
 Job cpu time:       0 days  0 hours  0 minutes 26.0 seconds.
 File lengths (MBytes):  RWF=      5 Int=      0 D2E=      0 Chk=      1 Scr=      1
 Normal termination of Gaussian 09 at Wed May 17 12:59:38 2017.
