 Entering Gaussian System, Link 0=g09
 Initial command:
 /usr/local/apps/g09/l1.exe "/wrk/irikura/Gau-27725.inp" -scrdir="/wrk/irikura/"
 Entering Link 1 = /usr/local/apps/g09/l1.exe PID=     27727.
  
 Copyright (c) 1988,1990,1992,1993,1995,1998,2003,2009,2013,
            Gaussian, Inc.  All Rights Reserved.
  
 This is part of the Gaussian(R) 09 program.  It is based on
 the Gaussian(R) 03 system (copyright 2003, Gaussian, Inc.),
 the Gaussian(R) 98 system (copyright 1998, Gaussian, Inc.),
 the Gaussian(R) 94 system (copyright 1995, Gaussian, Inc.),
 the Gaussian 92(TM) system (copyright 1992, Gaussian, Inc.),
 the Gaussian 90(TM) system (copyright 1990, Gaussian, Inc.),
 the Gaussian 88(TM) system (copyright 1988, Gaussian, Inc.),
 the Gaussian 86(TM) system (copyright 1986, Carnegie Mellon
 University), and the Gaussian 82(TM) system (copyright 1983,
 Carnegie Mellon University). Gaussian is a federally registered
 trademark of Gaussian, Inc.
  
 This software contains proprietary and confidential information,
 including trade secrets, belonging to Gaussian, Inc.
  
 This software is provided under written license and may be
 used, copied, transmitted, or stored only in accord with that
 written license.
  
 The following legend is applicable only to US Government
 contracts under FAR:
  
                    RESTRICTED RIGHTS LEGEND
  
 Use, reproduction and disclosure by the US Government is
 subject to restrictions as set forth in subparagraphs (a)
 and (c) of the Commercial Computer Software - Restricted
 Rights clause in FAR 52.227-19.
  
 Gaussian, Inc.
 340 Quinnipiac St., Bldg. 40, Wallingford CT 06492
  
  
 ---------------------------------------------------------------
 Warning -- This program may not be used in any manner that
 competes with the business of Gaussian, Inc. or will provide
 assistance to any competitor of Gaussian, Inc.  The licensee
 of this program is prohibited from giving any competitor of
 Gaussian, Inc. access to this program.  By using this program,
 the user acknowledges that Gaussian, Inc. is engaged in the
 business of creating and licensing software in the field of
 computational chemistry and represents and warrants to the
 licensee that it is not a competitor of Gaussian, Inc. and that
 it will not use this program in any manner prohibited above.
 ---------------------------------------------------------------
  

 Cite this work as:
 Gaussian 09, Revision D.01,
 M. J. Frisch, G. W. Trucks, H. B. Schlegel, G. E. Scuseria, 
 M. A. Robb, J. R. Cheeseman, G. Scalmani, V. Barone, B. Mennucci, 
 G. A. Petersson, H. Nakatsuji, M. Caricato, X. Li, H. P. Hratchian, 
 A. F. Izmaylov, J. Bloino, G. Zheng, J. L. Sonnenberg, M. Hada, 
 M. Ehara, K. Toyota, R. Fukuda, J. Hasegawa, M. Ishida, T. Nakajima, 
 Y. Honda, O. Kitao, H. Nakai, T. Vreven, J. A. Montgomery, Jr., 
 J. E. Peralta, F. Ogliaro, M. Bearpark, J. J. Heyd, E. Brothers, 
 K. N. Kudin, V. N. Staroverov, T. Keith, R. Kobayashi, J. Normand, 
 K. Raghavachari, A. Rendell, J. C. Burant, S. S. Iyengar, J. Tomasi, 
 M. Cossi, N. Rega, J. M. Millam, M. Klene, J. E. Knox, J. B. Cross, 
 V. Bakken, C. Adamo, J. Jaramillo, R. Gomperts, R. E. Stratmann, 
 O. Yazyev, A. J. Austin, R. Cammi, C. Pomelli, J. W. Ochterski, 
 R. L. Martin, K. Morokuma, V. G. Zakrzewski, G. A. Voth, 
 P. Salvador, J. J. Dannenberg, S. Dapprich, A. D. Daniels, 
 O. Farkas, J. B. Foresman, J. V. Ortiz, J. Cioslowski, 
 and D. J. Fox, Gaussian, Inc., Wallingford CT, 2013.
 
 ******************************************
 Gaussian 09:  ES64L-G09RevD.01 24-Apr-2013
                17-May-2017 
 ******************************************
 %chk=ch3.chk
 %nprocs=4
 Will use up to    4 processors via shared memory.
 %mem=1000mw
 -----------------------------------------------------------------
 # HF/GEN gfinput geom=check IOP(6/81=3) scf=xqc pop(all,thresh=1)
 -----------------------------------------------------------------
 1/29=2,38=1/1;
 2/12=2,40=1/2;
 3/5=7,11=9,14=-4,16=1,24=10,25=1,30=1/1,2,3;
 4//1;
 5/5=2,8=3,13=1,38=5/2,8;
 6/7=2,8=2,9=2,10=2,28=1,81=3,87=-1,88=1/1;
 99/5=1,9=1/99;
 ----------------------------------------
 BEB step 2: Hartree-Fock B and U for ch3
 ----------------------------------------
 Structure from the checkpoint file:  "ch3.chk"
 Charge =  0 Multiplicity = 2
 Redundant internal coordinates found in file.
 C,0,0.,-0.0000000011,0.
 H,0,0.000000002,-1.0827517802,0.
 H,0,-0.9376905476,0.5413758867,0.
 H,0,0.9376905457,0.5413758901,0.
 Recover connectivity data from disk.
                          Input orientation:                          
 ---------------------------------------------------------------------
 Center     Atomic      Atomic             Coordinates (Angstroms)
 Number     Number       Type             X           Y           Z
 ---------------------------------------------------------------------
      1          6           0        0.000000    0.000000    0.000000
      2          1           0        0.000000   -1.082752    0.000000
      3          1           0       -0.937691    0.541376    0.000000
      4          1           0        0.937691    0.541376    0.000000
 ---------------------------------------------------------------------
                    Distance matrix (angstroms):
                    1          2          3          4
     1  C    0.000000
     2  H    1.082752   0.000000
     3  H    1.082752   1.875381   0.000000
     4  H    1.082752   1.875381   1.875381   0.000000
 Stoichiometry    CH3(2)
 Framework group  D3H[O(C),3C2(H)]
 Deg. of freedom     1
 Full point group                 D3H     NOp  12
 Largest Abelian subgroup         C2V     NOp   4
 Largest concise Abelian subgroup C2      NOp   2
                         Standard orientation:                         
 ---------------------------------------------------------------------
 Center     Atomic      Atomic             Coordinates (Angstroms)
 Number     Number       Type             X           Y           Z
 ---------------------------------------------------------------------
      1          6           0        0.000000    0.000000    0.000000
      2          1           0        0.000000    1.082752    0.000000
      3          1           0       -0.937691   -0.541376    0.000000
      4          1           0        0.937691   -0.541376    0.000000
 ---------------------------------------------------------------------
 Rotational constants (GHZ):    285.1563071    285.1563071    142.5781536
 General basis read from cards:  (5D, 7F)
 AO basis set in the form of general basis input (Overlap normalization):
      1 0
 S   6 1.00       0.000000000000
      0.4563240000D+04  0.1966650249D-02
      0.6820240000D+03  0.1523060193D-01
      0.1549730000D+03  0.7612690966D-01
      0.4445530000D+02  0.2608010331D+00
      0.1302900000D+02  0.6164620782D+00
      0.1827730000D+01  0.2210060280D+00
 SP   3 1.00       0.000000000000
      0.2096420000D+02  0.1146600807D+00  0.4024869267D-01
      0.4803310000D+01  0.9199996477D+00  0.2375939567D+00
      0.1459330000D+01 -0.3030682134D-02  0.8158538515D+00
 SP   1 1.00       0.000000000000
      0.4834560000D+00  0.1000000000D+01  0.1000000000D+01
 SP   1 1.00       0.000000000000
      0.1455850000D+00  0.1000000000D+01  0.1000000000D+01
 D   1 1.00       0.000000000000
      0.6260000000D+00  0.1000000000D+01
 ****
      2 0
 S   3 1.00       0.000000000000
      0.3386500000D+02  0.2549381454D-01
      0.5094790000D+01  0.1903731086D+00
      0.1158790000D+01  0.8521614860D+00
 S   1 1.00       0.000000000000
      0.3258400000D+00  0.1000000000D+01
 S   1 1.00       0.000000000000
      0.1027410000D+00  0.1000000000D+01
 P   1 1.00       0.000000000000
      0.7500000000D+00  0.1000000000D+01
 ****
      3 0
 S   3 1.00       0.000000000000
      0.3386500000D+02  0.2549381454D-01
      0.5094790000D+01  0.1903731086D+00
      0.1158790000D+01  0.8521614860D+00
 S   1 1.00       0.000000000000
      0.3258400000D+00  0.1000000000D+01
 S   1 1.00       0.000000000000
      0.1027410000D+00  0.1000000000D+01
 P   1 1.00       0.000000000000
      0.7500000000D+00  0.1000000000D+01
 ****
      4 0
 S   3 1.00       0.000000000000
      0.3386500000D+02  0.2549381454D-01
      0.5094790000D+01  0.1903731086D+00
      0.1158790000D+01  0.8521614860D+00
 S   1 1.00       0.000000000000
      0.3258400000D+00  0.1000000000D+01
 S   1 1.00       0.000000000000
      0.1027410000D+00  0.1000000000D+01
 P   1 1.00       0.000000000000
      0.7500000000D+00  0.1000000000D+01
 ****

 There are    19 symmetry adapted cartesian basis functions of A1  symmetry.
 There are     2 symmetry adapted cartesian basis functions of A2  symmetry.
 There are    10 symmetry adapted cartesian basis functions of B1  symmetry.
 There are     6 symmetry adapted cartesian basis functions of B2  symmetry.
 There are    18 symmetry adapted basis functions of A1  symmetry.
 There are     2 symmetry adapted basis functions of A2  symmetry.
 There are    10 symmetry adapted basis functions of B1  symmetry.
 There are     6 symmetry adapted basis functions of B2  symmetry.
    36 basis functions,    56 primitive gaussians,    37 cartesian basis functions
     5 alpha electrons        4 beta electrons
       nuclear repulsion energy         9.6437168407 Hartrees.
 NAtoms=    4 NActive=    4 NUniq=    2 SFac= 4.00D+00 NAtFMM=   60 NAOKFM=F Big=F
 Integral buffers will be    131072 words long.
 Raffenetti 2 integral format.
 Two-electron integral symmetry is turned on.
 One-electron integrals computed using PRISM.
 NBasis=    36 RedAO= T EigKep=  2.92D-02  NBF=    18     2    10     6
 NBsUse=    36 1.00D-06 EigRej= -1.00D+00 NBFU=    18     2    10     6
 ExpMin= 1.03D-01 ExpMax= 4.56D+03 ExpMxC= 6.82D+02 IAcc=1 IRadAn=         1 AccDes= 0.00D+00
 Harris functional with IExCor=  205 and IRadAn=       1 diagonalized for initial guess.
 HarFok:  IExCor=  205 AccDes= 0.00D+00 IRadAn=         1 IDoV= 1 UseB2=F ITyADJ=14
 ICtDFT=  3500011 ScaDFX=  1.000000  1.000000  1.000000  1.000000
 FoFCou: FMM=F IPFlag=           0 FMFlag=      100000 FMFlg1=           0
         NFxFlg=           0 DoJE=T BraDBF=F KetDBF=T FulRan=T
         wScrn=  0.000000 ICntrl=     500 IOpCl=  0 I1Cent=   200000004 NGrid=           0
         NMat0=    1 NMatS0=      1 NMatT0=    0 NMatD0=    1 NMtDS0=    0 NMtDT0=    0
 Petite list used in FoFCou.
 Initial guess orbital symmetries:
 Alpha Orbitals:
       Occupied  (?A) (?A) (?B) (?B) (A2")
       Virtual   (?A) (?B) (?B) (?B) (?B) (?A) (A2") (?B) (?B)
                 (?A) (E") (E") (?B) (?B) (?A) (?A) (A2") (?B)
                 (?B) (E") (E") (?A) (?B) (?B) (?B) (?B) (A2")
                 (?A) (?B) (?B) (?A)
 Beta  Orbitals:
       Occupied  (?A) (?A) (?B) (?B)
       Virtual   (A2") (?A) (?B) (?B) (?B) (?B) (?A) (A2") (?B)
                 (?B) (?A) (E") (E") (?B) (?B) (?A) (?A) (A2")
                 (?B) (?B) (E") (E") (?A) (?B) (?B) (?B) (?B) (A2")
                 (?A) (?B) (?B) (?A)
 Initial guess <Sx>= 0.0000 <Sy>= 0.0000 <Sz>= 0.5000 <S**2>= 0.7500 S= 0.5000
 Keep R1 and R2 ints in memory in symmetry-blocked form, NReq=1068504.
 Requested convergence on RMS density matrix=1.00D-08 within  64 cycles.
 Requested convergence on MAX density matrix=1.00D-06.
 Requested convergence on             energy=1.00D-06.
 No special actions if energy rises.
 SCF Done:  E(UHF) =  -39.5727325163     A.U. after   11 cycles
            NFock= 11  Conv=0.55D-08     -V/T= 2.0012
 <Sx>= 0.0000 <Sy>= 0.0000 <Sz>= 0.5000 <S**2>= 0.7617 S= 0.5058
 <L.S>= 0.000000000000E+00
 Annihilation of the first spin contaminant:
 S**2 before annihilation     0.7617,   after     0.7501
 QCSCF skips out because SCF is already converged.

 **********************************************************************

            Population analysis using the SCF density.

 **********************************************************************

 Orbital symmetries:
 Alpha Orbitals:
       Occupied  (?A) (?A) (?B) (?B) (A2")
       Virtual   (?A) (?B) (?B) (?B) (?B) (?A) (A2") (?B) (?B)
                 (?A) (?C) (?C) (?B) (?B) (?A) (?A) (A2") (?B)
                 (?B) (?C) (?C) (?A) (?B) (?B) (?B) (?B) (?A) (A2")
                 (?B) (?B) (?A)
 Beta  Orbitals:
       Occupied  (?A) (?A) (?B) (?B)
       Virtual   (A2") (?A) (?B) (?B) (?B) (?B) (?A) (A2") (?B)
                 (?B) (?A) (?C) (?C) (?B) (?B) (?A) (?A) (A2")
                 (?B) (?B) (?C) (?C) (?A) (?B) (?B) (?B) (?B) (?A)
                 (A2") (?B) (?B) (?A)
 Unable to determine electronic state:  an orbital has unidentified symmetry.
 Alpha  occ. eigenvalues --  -11.23287  -0.94521  -0.57792  -0.57792  -0.38456
 Alpha virt. eigenvalues --    0.16231   0.22885   0.22885   0.44920   0.44920
 Alpha virt. eigenvalues --    0.51144   0.57622   0.81110   0.81110   0.88049
 Alpha virt. eigenvalues --    1.27336   1.27336   1.63964   1.63964   1.66068
 Alpha virt. eigenvalues --    1.74158   1.90758   2.15134   2.15134   2.23346
 Alpha virt. eigenvalues --    2.23346   2.59864   2.71919   2.71919   2.97494
 Alpha virt. eigenvalues --    2.97494   2.99967   3.04142   4.11987   4.11987
 Alpha virt. eigenvalues --   25.05067
  Beta  occ. eigenvalues --  -11.20899  -0.85269  -0.56302  -0.56302
  Beta virt. eigenvalues --    0.13572   0.17458   0.23407   0.23407   0.45309
  Beta virt. eigenvalues --    0.45309   0.55697   0.71166   0.82825   0.82825
  Beta virt. eigenvalues --    0.91715   1.33446   1.33446   1.64549   1.64549
  Beta virt. eigenvalues --    1.65573   1.82621   1.92199   2.14882   2.14882
  Beta virt. eigenvalues --    2.27310   2.27310   2.59949   2.72173   2.72173
  Beta virt. eigenvalues --    2.98446   2.98446   3.00839   3.12886   4.14070
  Beta virt. eigenvalues --    4.14070  25.06687
          Condensed to atoms (all electrons):
               1          2          3          4
     1  C    5.119736   0.406691   0.406691   0.406691
     2  H    0.406691   0.534238  -0.027100  -0.027100
     3  H    0.406691  -0.027100   0.534238  -0.027100
     4  H    0.406691  -0.027100  -0.027100   0.534238
          Atomic-Atomic Spin Densities.
               1          2          3          4
     1  C    1.298391  -0.006746  -0.006746  -0.006746
     2  H   -0.006746  -0.090713   0.002371   0.002371
     3  H   -0.006746   0.002371  -0.090713   0.002371
     4  H   -0.006746   0.002371   0.002371  -0.090713
 Mulliken charges and spin densities:
               1          2
     1  C   -0.339810   1.278154
     2  H    0.113270  -0.092718
     3  H    0.113270  -0.092718
     4  H    0.113270  -0.092718
 Sum of Mulliken charges =   0.00000   1.00000
 Mulliken charges and spin densities with hydrogens summed into heavy atoms:
               1          2
     1  C    0.000000   1.000000
 Electronic spatial extent (au):  <R**2>=             29.8039
 Charge=              0.0000 electrons
 Dipole moment (field-independent basis, Debye):
    X=              0.0000    Y=              0.0000    Z=              0.0000  Tot=              0.0000
 Quadrupole moment (field-independent basis, Debye-Ang):
   XX=             -7.1665   YY=             -7.1665   ZZ=             -8.8612
   XY=              0.0000   XZ=              0.0000   YZ=              0.0000
 Traceless Quadrupole moment (field-independent basis, Debye-Ang):
   XX=              0.5649   YY=              0.5649   ZZ=             -1.1298
   XY=              0.0000   XZ=              0.0000   YZ=              0.0000
 Octapole moment (field-independent basis, Debye-Ang**2):
  XXX=              0.0000  YYY=              0.9023  ZZZ=              0.0000  XYY=              0.0000
  XXY=             -0.9023  XXZ=              0.0000  XZZ=              0.0000  YZZ=              0.0000
  YYZ=              0.0000  XYZ=              0.0000
 Hexadecapole moment (field-independent basis, Debye-Ang**3):
 XXXX=            -14.3599 YYYY=            -14.3599 ZZZZ=             -9.8896 XXXY=              0.0000
 XXXZ=              0.0000 YYYX=              0.0000 YYYZ=              0.0000 ZZZX=              0.0000
 ZZZY=              0.0000 XXYY=             -4.7866 XXZZ=             -4.4409 YYZZ=             -4.4409
 XXYZ=              0.0000 YYXZ=              0.0000 ZZXY=              0.0000
 N-N= 9.643716840664D+00 E-N=-1.110539621921D+02  KE= 3.952726612255D+01
 Symmetry A1   KE= 3.648264550990D+01
 Symmetry A2   KE= 1.670065350691D-31
 Symmetry B1   KE= 1.928741188169D+00
 Symmetry B2   KE= 1.115879424484D+00

 Atomic contributions to Alpha molecular orbitals:
 Alpha occ 1 OE=-11.233 is C1-s=1.00
 Alpha occ 2 OE=-0.945 is C1-s=0.71 H3-s=0.09 H4-s=0.09 H2-s=0.09
 Alpha occ 3 OE=-0.578 is C1-p=0.55 H4-s=0.22 H3-s=0.22
 Alpha occ 4 OE=-0.578 is C1-p=0.55 H2-s=0.29 H4-s=0.07 H3-s=0.07
 Alpha occ 5 OE=-0.385 is C1-p=0.98
 Alpha vir 6 OE=0.162 is H4-s=0.44 H3-s=0.44 H2-s=0.44 C1-s=-0.33
 Alpha vir 7 OE=0.229 is H2-s=0.79 C1-p=-0.21 H3-s=0.20 H4-s=0.20 H2-p=0.01
 Alpha vir 8 OE=0.229 is H4-s=0.59 H3-s=0.59 C1-p=-0.21
 Alpha vir 9 OE=0.449 is C1-p=0.74 H3-s=0.14 H4-s=0.14 C1-d=-0.02 H2-p=0.02
 Alpha vir 10 OE=0.449 is C1-p=0.74 H2-s=0.18 H4-s=0.05 H3-s=0.05 C1-d=-0.02
 Alpha vir 11 OE=0.511 is C1-s=0.37 H2-s=0.21 H4-s=0.21 H3-s=0.21 C1-d=0.01
 Alpha vir 12 OE=0.576 is C1-p=1.00
 Alpha vir 13 OE=0.811 is C1-p=0.92 H2-s=0.02 H2-p=0.02 C1-d=0.01
 Alpha vir 14 OE=0.811 is C1-p=0.92 H4-s=0.02 H3-s=0.02 H4-p=0.02 H3-p=0.02 C1-d=0.01
 Alpha vir 15 OE=0.880 is C1-s=1.24 H2-s=-0.12 H4-s=-0.12 H3-s=-0.12 H2-p=0.04 H4-p=0.04 H3-p=0.04
 Alpha vir 16 OE=1.273 is C1-d=0.49 H3-p=0.25 H4-p=0.25
 Alpha vir 17 OE=1.273 is C1-d=0.49 H2-p=0.34 H3-p=0.08 H4-p=0.08
 Alpha vir 18 OE=1.640 is C1-d=0.49 H4-p=0.19 H3-p=0.19 H2-s=0.10 C1-p=-0.06 H2-p=0.04 H4-s=0.02 H3-s=0.02
 Alpha vir 19 OE=1.640 is C1-d=0.49 H2-p=0.24 H4-p=0.09 H3-p=0.09 H4-s=0.07 H3-s=0.07 C1-p=-0.06
 Alpha vir 20 OE=1.661 is H2-p=0.33 H4-p=0.33 H3-p=0.33
 Alpha vir 21 OE=1.742 is C1-d=0.84 H2-s=0.05 H4-s=0.05 H3-s=0.05 C1-s=-0.04 H4-p=0.01 H3-p=0.01 H2-p=0.01
 Alpha vir 22 OE=1.908 is H2-p=0.33 H3-p=0.33 H4-p=0.33 C1-p=0.02
 Alpha vir 23 OE=2.151 is H2-p=0.26 H3-s=0.21 H4-s=0.21 C1-d=0.20 H3-p=0.05 H4-p=0.05 C1-p=0.03
 Alpha vir 24 OE=2.151 is H2-s=0.28 C1-d=0.20 H4-p=0.19 H3-p=0.19 H4-s=0.07 H3-s=0.07 C1-p=0.03 H2-p=-0.02
 Alpha vir 25 OE=2.233 is C1-d=0.51 H2-p=0.33 H3-p=0.08 H4-p=0.08
 Alpha vir 26 OE=2.233 is C1-d=0.51 H3-p=0.25 H4-p=0.25
 Alpha vir 27 OE=2.599 is H2-s=0.31 H4-s=0.31 H3-s=0.31 C1-d=0.09 C1-s=-0.02
 Alpha vir 28 OE=2.719 is H4-p=0.48 H3-p=0.48 C1-p=-0.13 C1-d=-0.09 H3-s=0.09 H4-s=0.09 H2-p=0.07
 Alpha vir 29 OE=2.719 is H2-p=0.62 H3-p=0.21 H4-p=0.21 C1-p=-0.13 H2-s=0.11 C1-d=-0.09 H4-s=0.03 H3-s=0.03
 Alpha vir 30 OE=2.975 is C1-p=0.44 C1-d=0.21 H2-s=0.15 H4-p=0.05 H3-p=0.05 H3-s=0.04 H4-s=0.04 H2-p=0.02
 Alpha vir 31 OE=2.975 is C1-p=0.44 C1-d=0.21 H4-s=0.11 H3-s=0.11 H2-p=0.07 H4-p=0.03 H3-p=0.03
 Alpha vir 32 OE=3.000 is H4-p=0.28 H3-p=0.28 H2-p=0.28 C1-s=0.07 C1-d=0.06
 Alpha vir 33 OE=3.041 is C1-p=0.99
 Alpha vir 34 OE=4.120 is C1-p=0.72 C1-d=0.19 H3-s=0.06 H4-s=0.06 H3-p=-0.01 H4-p=-0.01
 Alpha vir 35 OE=4.120 is C1-p=0.72 C1-d=0.19 H2-s=0.07 H2-p=-0.02 H4-s=0.02 H3-s=0.02
 Alpha vir 36 OE=25.051 is C1-s=0.99

 Atomic contributions to Beta  molecular orbitals:
 Beta  occ 1 OE=-11.209 is C1-s=1.00
 Beta  occ 2 OE=-0.853 is C1-s=0.57 H4-s=0.14 H3-s=0.14 H2-s=0.14
 Beta  occ 3 OE=-0.563 is C1-p=0.47 H3-s=0.26 H4-s=0.26
 Beta  occ 4 OE=-0.563 is C1-p=0.47 H2-s=0.34 H3-s=0.09 H4-s=0.09
 Beta  vir 5 OE=0.136 is C1-p=0.98
 Beta  vir 6 OE=0.175 is H4-s=0.42 H3-s=0.42 H2-s=0.42 C1-s=-0.27
 Beta  vir 7 OE=0.234 is H2-s=0.78 H4-s=0.19 H3-s=0.19 C1-p=-0.19 H2-p=0.01
 Beta  vir 8 OE=0.234 is H3-s=0.58 H4-s=0.58 C1-p=-0.19 H4-p=0.01 H3-p=0.01
 Beta  vir 9 OE=0.453 is C1-p=0.77 H3-s=0.12 H4-s=0.12 C1-d=-0.02 H2-p=0.02
 Beta  vir 10 OE=0.453 is C1-p=0.77 H2-s=0.16 H3-s=0.04 H4-s=0.04 C1-d=-0.02 H4-p=0.01 H3-p=0.01
 Beta  vir 11 OE=0.557 is C1-s=0.50 H2-s=0.18 H4-s=0.18 H3-s=0.18 C1-d=-0.01
 Beta  vir 12 OE=0.712 is C1-p=0.99
 Beta  vir 13 OE=0.828 is C1-p=0.92 H2-p=0.02 H2-s=0.02 C1-d=0.01
 Beta  vir 14 OE=0.828 is C1-p=0.92 H4-p=0.02 H3-p=0.02 C1-d=0.01 H4-s=0.01 H3-s=0.01
 Beta  vir 15 OE=0.917 is C1-s=1.22 H2-s=-0.11 H4-s=-0.11 H3-s=-0.11 H2-p=0.04 H4-p=0.04 H3-p=0.04
 Beta  vir 16 OE=1.334 is C1-d=0.44 H3-p=0.28 H4-p=0.28
 Beta  vir 17 OE=1.334 is C1-d=0.44 H2-p=0.37 H3-p=0.09 H4-p=0.09
 Beta  vir 18 OE=1.645 is C1-d=0.47 H4-p=0.20 H3-p=0.20 H2-s=0.09 C1-p=-0.06 H2-p=0.04 H4-s=0.02 H3-s=0.02
 Beta  vir 19 OE=1.645 is C1-d=0.47 H2-p=0.25 H4-p=0.10 H3-p=0.10 H3-s=0.07 H4-s=0.07 C1-p=-0.06
 Beta  vir 20 OE=1.656 is H2-p=0.33 H4-p=0.33 H3-p=0.33
 Beta  vir 21 OE=1.826 is C1-d=0.84 C1-s=-0.07 H2-s=0.06 H4-s=0.06 H3-s=0.06 H3-p=0.01 H4-p=0.01 H2-p=0.01
 Beta  vir 22 OE=1.922 is H2-p=0.32 H3-p=0.32 H4-p=0.32 C1-p=0.03
 Beta  vir 23 OE=2.149 is H2-s=0.28 C1-d=0.20 H4-p=0.18 H3-p=0.18 H4-s=0.07 H3-s=0.07 C1-p=0.02 H2-p=-0.02
 Beta  vir 24 OE=2.149 is H2-p=0.25 H3-s=0.21 H4-s=0.21 C1-d=0.20 H3-p=0.05 H4-p=0.05 C1-p=0.02
 Beta  vir 25 OE=2.273 is C1-d=0.56 H3-p=0.22 H4-p=0.22
 Beta  vir 26 OE=2.273 is C1-d=0.56 H2-p=0.29 H3-p=0.07 H4-p=0.07
 Beta  vir 27 OE=2.599 is H2-s=0.30 H4-s=0.30 H3-s=0.30 C1-d=0.11 C1-s=-0.02
 Beta  vir 28 OE=2.722 is H4-p=0.48 H3-p=0.48 C1-p=-0.12 C1-d=-0.09 H3-s=0.09 H4-s=0.09 H2-p=0.08
 Beta  vir 29 OE=2.722 is H2-p=0.61 H3-p=0.21 H4-p=0.21 C1-p=-0.12 H2-s=0.12 C1-d=-0.09 H3-s=0.03 H4-s=0.03
 Beta  vir 30 OE=2.984 is C1-p=0.44 C1-d=0.22 H4-s=0.11 H3-s=0.11 H2-p=0.06 H3-p=0.03 H4-p=0.03
 Beta  vir 31 OE=2.984 is C1-p=0.44 C1-d=0.22 H2-s=0.14 H4-p=0.05 H3-p=0.05 H3-s=0.04 H4-s=0.04 H2-p=0.02
 Beta  vir 32 OE=3.008 is H3-p=0.28 H4-p=0.28 H2-p=0.28 C1-s=0.07 C1-d=0.07
 Beta  vir 33 OE=3.129 is C1-p=1.00
 Beta  vir 34 OE=4.141 is C1-p=0.74 C1-d=0.19 H4-s=0.05 H3-s=0.05 H3-p=-0.02 H4-p=-0.02
 Beta  vir 35 OE=4.141 is C1-p=0.74 C1-d=0.19 H2-s=0.07 H2-p=-0.02 H4-s=0.02 H3-s=0.02
 Beta  vir 36 OE=25.067 is C1-s=0.99
 
 Orbital energies and kinetic energies (alpha):
                                 1                 2
   1         O               -11.232870         16.005331
   2         O                -0.945207          1.305980
   3         O                -0.577920          0.981475
   4         O                -0.577920          0.981475
   5         (A2")--O         -0.384557          1.115879
   6         V                 0.162308          0.470883
   7         V                 0.228853          0.455433
   8         V                 0.228853          0.455433
   9         V                 0.449196          0.721967
  10         V                 0.449196          0.721967
  11         V                 0.511444          1.000591
  12         (A2")--V          0.576224          1.332892
  13         V                 0.811103          1.852532
  14         V                 0.811103          1.852532
  15         V                 0.880485          2.412985
  16         V                 1.273361          1.830780
  17         V                 1.273361          1.830780
  18         V                 1.639639          2.196619
  19         V                 1.639639          2.196619
  20         V                 1.660679          2.032957
  21         V                 1.741579          2.413072
  22         (A2")--V          1.907584          2.388803
  23         V                 2.151335          2.984331
  24         V                 2.151335          2.984331
  25         V                 2.233462          2.726288
  26         V                 2.233462          2.726288
  27         V                 2.598637          3.958606
  28         V                 2.719188          3.451826
  29         V                 2.719188          3.451826
  30         V                 2.974944          5.080438
  31         V                 2.974944          5.080438
  32         V                 2.999666          4.304190
  33         (A2")--V          3.041419          6.293021
  34         V                 4.119870          6.345397
  35         V                 4.119870          6.345397
  36         V                25.050667         60.436197
 Orbital energies and kinetic energies (beta):
                                 1                 2
   1         O               -11.208990         16.043938
   2         O                -0.852692          1.198655
   3         O                -0.563023          0.947266
   4         O                -0.563023          0.947266
   5         (A2")--V          0.135716          0.682574
   6         V                 0.174578          0.472934
   7         V                 0.234067          0.460389
   8         V                 0.234067          0.460389
   9         V                 0.453089          0.714437
  10         V                 0.453089          0.714437
  11         V                 0.556966          1.016669
  12         (A2")--V          0.711662          1.680790
  13         V                 0.828255          1.884235
  14         V                 0.828255          1.884235
  15         V                 0.917154          2.449084
  16         V                 1.334465          1.818176
  17         V                 1.334465          1.818176
  18         V                 1.645487          2.194054
  19         V                 1.645487          2.194054
  20         V                 1.655726          2.032957
  21         V                 1.826214          2.453374
  22         (A2")--V          1.921992          2.396395
  23         V                 2.148819          2.990787
  24         V                 2.148819          2.990787
  25         V                 2.273102          2.738892
  26         V                 2.273102          2.738892
  27         V                 2.599492          3.931220
  28         V                 2.721731          3.445208
  29         V                 2.721731          3.445208
  30         V                 2.984464          5.085899
  31         V                 2.984464          5.085899
  32         V                 3.008393          4.312605
  33         (A2")--V          3.128862          6.370837
  34         V                 4.140702          6.347742
  35         V                 4.140702          6.347742
  36         V                25.066870         60.429356
 Total kinetic energy from orbitals= 3.952726612255D+01
                          Isotropic Fermi Contact Couplings
        Atom                 a.u.       MegaHertz       Gauss      10(-4) cm-1
     1  C(13)              0.14289     160.63915      57.32004      53.58345
     2  H(1)              -0.02703    -120.80376     -43.10578     -40.29580
     3  H(1)              -0.02703    -120.80376     -43.10578     -40.29580
     4  H(1)              -0.02703    -120.80376     -43.10578     -40.29580
 --------------------------------------------------------
       Center         ----  Spin Dipole Couplings  ----
                      3XX-RR        3YY-RR        3ZZ-RR
 --------------------------------------------------------
     1   Atom       -0.550309     -0.550309      1.100617
     2   Atom       -0.081310      0.087770     -0.006460
     3   Atom        0.045500     -0.039040     -0.006460
     4   Atom        0.045500     -0.039040     -0.006460
 --------------------------------------------------------
                        XY            XZ            YZ
 --------------------------------------------------------
     1   Atom        0.000000      0.000000      0.000000
     2   Atom        0.000000      0.000000      0.000000
     3   Atom        0.073214      0.000000      0.000000
     4   Atom       -0.073214      0.000000      0.000000
 --------------------------------------------------------


 ---------------------------------------------------------------------------------
              Anisotropic Spin Dipole Couplings in Principal Axis System
 ---------------------------------------------------------------------------------

       Atom             a.u.   MegaHertz   Gauss  10(-4) cm-1        Axes

              Baa    -0.5503   -73.846   -26.350   -24.632  0.8002  0.5998  0.0000
     1 C(13)  Bbb    -0.5503   -73.846   -26.350   -24.632 -0.5998  0.8002  0.0000
              Bcc     1.1006   147.692    52.700    49.265  0.0000  0.0000  1.0000
 
              Baa    -0.0813   -43.383   -15.480   -14.471  1.0000  0.0000  0.0000
     2 H(1)   Bbb    -0.0065    -3.447    -1.230    -1.150  0.0000  0.0000  1.0000
              Bcc     0.0878    46.830    16.710    15.621  0.0000  1.0000  0.0000
 
              Baa    -0.0813   -43.383   -15.480   -14.471 -0.5000  0.8660  0.0000
     3 H(1)   Bbb    -0.0065    -3.447    -1.230    -1.150  0.0000  0.0000  1.0000
              Bcc     0.0878    46.830    16.710    15.621  0.8660  0.5000  0.0000
 
              Baa    -0.0813   -43.383   -15.480   -14.471  0.5000  0.8660  0.0000
     4 H(1)   Bbb    -0.0065    -3.447    -1.230    -1.150  0.0000  0.0000  1.0000
              Bcc     0.0878    46.830    16.710    15.621  0.8660 -0.5000  0.0000
 

 ---------------------------------------------------------------------------------


 Test job not archived.
 1\1\GINC-GAMBA\SP\UHF\Gen\C1H3(2)\IRIKURA\17-May-2017\0\\# HF/GEN gfin
 put geom=check IOP(6/81=3) scf=xqc pop(all,thresh=1)\\BEB step 2: Hart
 ree-Fock B and U for ch3\\0,2\C,0,0.,-0.0000000011,0.\H,0,0.000000002,
 -1.0827517802,0.\H,0,-0.9376905476,0.5413758867,0.\H,0,0.9376905457,0.
 5413758901,0.\\Version=ES64L-G09RevD.01\HF=-39.5727325\S2=0.761683\S2-
 1=0.\S2A=0.750076\RMSD=5.492e-09\Dipole=0.,0.,0.\Quadrupole=0.419996,0
 .419996,-0.839992,0.,0.,0.\PG=D03H [O(C1),3C2(H1)]\\@


 EVERYBODY NEEDS BEAUTY AS WELL AS BREAD, PLACES TO PLAY IN AND PRAY IN,
 WHERE NATURE MAY HEAL AND CHEER AND GIVE STRENGTH TO BODY AND SOUL ALIKE.

                                    -- JOHN MUIR
 Job cpu time:       0 days  0 hours  0 minutes 14.1 seconds.
 File lengths (MBytes):  RWF=      5 Int=      0 D2E=      0 Chk=      1 Scr=      1
 Normal termination of Gaussian 09 at Wed May 17 12:59:42 2017.
