 Entering Gaussian System, Link 0=g09
 AtFile(1): t_plusd.gbs
            -Al     0
            S   13   1.00
             205500.0000000              0.678836D-04
              30780.0000000              0.527149D-03
               7006.0000000              0.276203D-02
               1985.0000000              0.114728D-01
                649.1000000              0.398188D-01
                235.0000000              0.115040D+00
                 91.6200000              0.260887D+00
                 37.6700000              0.396386D+00
                 15.9100000              0.284597D+00
                  5.8500000              0.444583D-01
                  2.5420000             -0.489838D-02
                  1.0570000              0.261253D-02
                  0.1455000              0.722068D-03
            S   13   1.00
             205500.0000000             -0.176377D-04
              30780.0000000             -0.137195D-03
               7006.0000000             -0.718910D-03
               1985.0000000             -0.301146D-02
                649.1000000             -0.106014D-01
                235.0000000             -0.321345D-01
                 91.6200000             -0.803156D-01
                 37.6700000             -0.156794D+00
                 15.9100000             -0.168376D+00
                  5.8500000              0.126879D+00
                  2.5420000              0.561494D+00
                  1.0570000              0.436613D+00
                  0.1455000             -0.114563D-01
            S   13   1.00
             205500.0000000              0.407315D-05
              30780.0000000              0.316566D-04
               7006.0000000              0.166116D-03
               1985.0000000              0.694992D-03
                649.1000000              0.245511D-02
                235.0000000              0.744598D-02
                 91.6200000              0.188253D-01
                 37.6700000              0.372772D-01
                 15.9100000              0.419496D-01
                  5.8500000             -0.354375D-01
                  2.5420000             -0.175132D+00
                  1.0570000             -0.276203D+00
                  0.1455000              0.652809D+00
            S   1   1.00
                  0.2931000              1.0000000
            S   1   1.00
                  0.0565000              1.0000000
            P   7   1.00
                444.4000000              0.162786D-02
                105.1000000              0.130687D-01
                 33.4700000              0.612341D-01
                 12.3300000              0.187870D+00
                  4.8690000              0.360452D+00
                  1.9610000              0.408454D+00
                  0.1888000              0.976514D-02
            P   7   1.00
                444.4000000             -0.286341D-03
                105.1000000             -0.242308D-02
                 33.4700000             -0.108658D-01
                 12.3300000             -0.364307D-01
                  4.8690000             -0.641074D-01
                  1.9610000             -0.972239D-01
                  0.1888000              0.503448D+00
            P   1   1.00
                  0.7834000              1.0000000
            P   1   1.00
                  0.0555700              1.0000000
            D   1   1.00
                  1.5700000              1.0000000
            D   1   1.00
                  0.3330000              1.0000000
            D   1   1.00
                  0.1110000              1.0000000
            F   1   1.00
                  0.2440000              1.0000000
            ****
            -Si     0
            S   13   1.00
             254900.0000000              0.625101D-04
              38190.0000000              0.485553D-03
               8690.0000000              0.254516D-02
               2462.0000000              0.105866D-01
                804.8000000              0.368787D-01
                291.3000000              0.107479D+00
                113.6000000              0.247936D+00
                 46.7500000              0.390927D+00
                 19.8200000              0.302026D+00
                  7.7080000              0.559236D-01
                  3.3400000             -0.402406D-02
                  1.4020000              0.258030D-02
                  0.2070000              0.607930D-03
            S   13   1.00
             254900.0000000             -0.166370D-04
              38190.0000000             -0.129310D-03
               8690.0000000             -0.678828D-03
               2462.0000000             -0.284117D-02
                804.8000000             -0.100551D-01
                291.3000000             -0.305774D-01
                113.6000000             -0.777256D-01
                 46.7500000             -0.154236D+00
                 19.8200000             -0.180368D+00
                  7.7080000              0.798218D-01
                  3.3400000              0.547441D+00
                  1.4020000              0.480119D+00
                  0.2070000             -0.106996D-01
            S   13   1.00
             254900.0000000              0.426257D-05
              38190.0000000              0.331062D-04
               8690.0000000              0.174015D-03
               2462.0000000              0.727574D-03
                804.8000000              0.258333D-02
                291.3000000              0.786354D-02
                113.6000000              0.202155D-01
                 46.7500000              0.407320D-01
                 19.8200000              0.499358D-01
                  7.7080000             -0.249396D-01
                  3.3400000             -0.190350D+00
                  1.4020000             -0.318350D+00
                  0.2070000              0.681180D+00
            S   1   1.00
                  0.4387000              1.0000000
            S   1   1.00
                  0.0794400              1.0000000
            P   7   1.00
                481.5000000              0.192045D-02
                113.9000000              0.153552D-01
                 36.2300000              0.713991D-01
                 13.3400000              0.213052D+00
                  5.2520000              0.390354D+00
                  2.1200000              0.393721D+00
                  0.2528000              0.395630D-02
            P   7   1.00
                481.5000000             -0.405220D-03
                113.9000000             -0.335896D-02
                 36.2300000             -0.152860D-01
                 13.3400000             -0.489218D-01
                  5.2520000             -0.855008D-01
                  2.1200000             -0.112137D+00
                  0.2528000              0.551919D+00
            P   1   1.00
                  0.8561000              1.0000000
            P   1   1.00
                  0.0788900              1.0000000
            D   1   1.00
                  2.3030000              1.0000000
            D   1   1.00
                  0.4760000              1.0000000
            D   1   1.00
                  0.1600000              1.0000000
            F   1   1.00
                  0.3360000              1.0000000
            ****
            -P     0
            S   13   1.00
             312400.0000000              0.576960D-04
              46800.0000000              0.448296D-03
              10650.0000000              0.234939D-02
               3018.0000000              0.978265D-02
                986.8000000              0.341467D-01
                357.4000000              0.100204D+00
                139.6000000              0.234372D+00
                 57.6300000              0.382434D+00
                 24.6000000              0.318088D+00
                 10.1200000              0.707788D-01
                  4.2830000             -0.181799D-02
                  1.8050000              0.216180D-02
                  0.2782000              0.432297D-03
            S   13   1.00
             312400.0000000             -0.156709D-04
              46800.0000000             -0.121724D-03
              10650.0000000             -0.639672D-03
               3018.0000000             -0.267426D-02
                986.8000000             -0.949831D-02
                357.4000000             -0.289349D-01
                139.6000000             -0.745121D-01
                 57.6300000             -0.149938D+00
                 24.6000000             -0.189467D+00
                 10.1200000              0.363270D-01
                  4.2830000              0.528816D+00
                  1.8050000              0.519115D+00
                  0.2782000             -0.925695D-02
            S   13   1.00
             312400.0000000              0.430631D-05
              46800.0000000              0.334194D-04
              10650.0000000              0.175885D-03
               3018.0000000              0.734340D-03
                986.8000000              0.261775D-02
                357.4000000              0.797852D-02
                139.6000000              0.207940D-01
                 57.6300000              0.424446D-01
                 24.6000000              0.563436D-01
                 10.1200000             -0.127358D-01
                  4.2830000             -0.196495D+00
                  1.8050000             -0.353555D+00
                  0.2782000              0.700912D+00
            S   1   1.00
                  0.6158000              1.0000000
            S   1   1.00
                  0.1055000              1.0000000
            P   7   1.00
                504.9000000              0.233728D-02
                119.4000000              0.185410D-01
                 37.9600000              0.849693D-01
                 13.9500000              0.244615D+00
                  5.4570000              0.422766D+00
                  2.1770000              0.368439D+00
                  0.2877000             -0.379005D-02
            P   7   1.00
                504.9000000             -0.555236D-03
                119.4000000             -0.445913D-02
                 37.9600000             -0.206350D-01
                 13.9500000             -0.617694D-01
                  5.4570000             -0.108924D+00
                  2.1770000             -0.105599D+00
                  0.2877000              0.576981D+00
            P   1   1.00
                  0.8010000              1.0000000
            P   1   1.00
                  0.0971400              1.0000000
            D   1   1.00
                  3.1200000              1.0000000
            D   1   1.00
                  0.6480000              1.0000000
            D   1   1.00
                  0.2180000              1.0000000
            F   1   1.00
                  0.4520000              1.0000000
            ****
            -S     0
            S   13   1.00
             374100.0000000              0.542140D-04
              56050.0000000              0.420855D-03
              12760.0000000              0.220698D-02
               3615.0000000              0.919258D-02
               1183.0000000              0.321123D-01
                428.8000000              0.946683D-01
                167.8000000              0.223630D+00
                 69.4700000              0.374393D+00
                 29.8400000              0.329108D+00
                 12.7200000              0.847038D-01
                  5.2440000              0.440851D-03
                  2.2190000              0.164827D-02
                  0.3490000              0.301306D-03
            S   13   1.00
             374100.0000000             -0.149837D-04
              56050.0000000             -0.116198D-03
              12760.0000000             -0.611583D-03
               3615.0000000             -0.255370D-02
               1183.0000000             -0.908708D-02
                428.8000000             -0.277045D-01
                167.8000000             -0.720020D-01
                 69.4700000             -0.146439D+00
                 29.8400000             -0.195150D+00
                 12.7200000              0.819193D-02
                  5.2440000              0.516601D+00
                  2.2190000              0.542178D+00
                  0.3490000             -0.918072D-02
            S   13   1.00
             374100.0000000              0.435066D-05
              56050.0000000              0.337140D-04
              12760.0000000              0.177674D-03
               3615.0000000              0.741116D-03
               1183.0000000              0.264591D-02
                428.8000000              0.807487D-02
                167.8000000              0.212276D-01
                 69.4700000              0.438323D-01
                 29.8400000              0.612716D-01
                 12.7200000             -0.361510D-02
                  5.2440000             -0.204510D+00
                  2.2190000             -0.381871D+00
                  0.3490000              0.714147D+00
            S   1   1.00
                  0.7767000              1.0000000
            S   1   1.00
                  0.1322000              1.0000000
            P   7   1.00
                574.4000000              0.242264D-02
                135.8000000              0.192796D-01
                 43.1900000              0.885401D-01
                 15.8700000              0.254654D+00
                  6.2080000              0.433984D+00
                  2.4830000              0.354953D+00
                  0.3229000             -0.502977D-02
            P   7   1.00
                574.4000000             -0.620102D-03
                135.8000000             -0.493882D-02
                 43.1900000             -0.232647D-01
                 15.8700000             -0.685195D-01
                  6.2080000             -0.123896D+00
                  2.4830000             -0.969499D-01
                  0.3229000              0.569394D+00
            P   1   1.00
                  0.8688000              1.0000000
            P   1   1.00
                  0.1098000              1.0000000
            D   1   1.00
                  3.7560000              1.0000000
            D   1   1.00
                  0.8120000              1.0000000
            D   1   1.00
                  0.2730000              1.0000000
            F   1   1.00
                  0.5570000              1.0000000
            ****
            -Cl     0
            S   13   1.00
             456100.0000000              0.492970D-04
              68330.0000000              0.383029D-03
              15550.0000000              0.200854D-02
               4405.0000000              0.838558D-02
               1439.0000000              0.294703D-01
                520.4000000              0.878325D-01
                203.1000000              0.211473D+00
                 83.9600000              0.365364D+00
                 36.2000000              0.340884D+00
                 15.8300000              0.102133D+00
                  6.3340000              0.311675D-02
                  2.6940000              0.105751D-02
                  0.4313000              0.156136D-03
            S   13   1.00
             456100.0000000             -0.138304D-04
              68330.0000000             -0.107279D-03
              15550.0000000             -0.565083D-03
               4405.0000000             -0.236135D-02
               1439.0000000             -0.845886D-02
                520.4000000             -0.259638D-01
                203.1000000             -0.686362D-01
                 83.9600000             -0.141874D+00
                 36.2000000             -0.199319D+00
                 15.8300000             -0.195662D-01
                  6.3340000              0.499741D+00
                  2.6940000              0.563736D+00
                  0.4313000             -0.835091D-02
            S   13   1.00
             456100.0000000              0.418546D-05
              68330.0000000              0.324395D-04
              15550.0000000              0.171105D-03
               4405.0000000              0.714176D-03
               1439.0000000              0.256705D-02
                520.4000000              0.788552D-02
                203.1000000              0.210867D-01
                 83.9600000              0.442264D-01
                 36.2000000              0.651670D-01
                 15.8300000              0.603012D-02
                  6.3340000             -0.206495D+00
                  2.6940000             -0.405871D+00
                  0.4313000              0.725661D+00
            S   1   1.00
                  0.9768000              1.0000000
            S   1   1.00
                  0.1625000              1.0000000
            P   7   1.00
                663.3000000              0.240448D-02
                156.8000000              0.192148D-01
                 49.9800000              0.885097D-01
                 18.4200000              0.256020D+00
                  7.2400000              0.436927D+00
                  2.9220000              0.350334D+00
                  0.3818000             -0.458423D-02
            P   7   1.00
                663.3000000             -0.652145D-03
                156.8000000             -0.519445D-02
                 49.9800000             -0.246938D-01
                 18.4200000             -0.728167D-01
                  7.2400000             -0.134030D+00
                  2.9220000             -0.947742D-01
                  0.3818000              0.564667D+00
            P   1   1.00
                  1.0220000              1.0000000
            P   1   1.00
                  0.1301000              1.0000000
            D   1   1.00
                  4.6100000              1.0000000
            D   1   1.00
                  1.0110000              1.0000000
            D   1   1.00
                  0.3390000              1.0000000
            F   1   1.00
                  0.7060000              1.0000000
            ****
            -Ar     0
            S   13   1.00
             545000.0000000              0.455828D-04
              81640.0000000              0.354108D-03
              18580.0000000              0.185797D-02
               5261.0000000              0.776851D-02
               1717.0000000              0.274232D-01
                619.9000000              0.823836D-01
                241.6000000              0.201230D+00
                 99.7900000              0.356781D+00
                 43.1500000              0.349563D+00
                 19.1400000              0.118266D+00
                  7.4880000              0.560190D-02
                  3.2050000              0.483473D-03
                  0.5204000              0.292025D-04
            S   13   1.00
             545000.0000000             -0.129551D-04
              81640.0000000             -0.100428D-03
              18580.0000000             -0.529583D-03
               5261.0000000             -0.221396D-02
               1717.0000000             -0.796845D-02
                619.9000000             -0.245803D-01
                241.6000000             -0.657798D-01
                 99.7900000             -0.137942D+00
                 43.1500000             -0.201630D+00
                 19.1400000             -0.412834D-01
                  7.4880000              0.484680D+00
                  3.2050000              0.579224D+00
                  0.5204000             -0.727553D-02
            S   13   1.00
             545000.0000000              0.404990D-05
              81640.0000000              0.313691D-04
              18580.0000000              0.165646D-03
               5261.0000000              0.691662D-03
               1717.0000000              0.249790D-02
                619.9000000              0.771074D-02
                241.6000000              0.208714D-01
                 99.7900000              0.443965D-01
                 43.1500000              0.680224D-01
                 19.1400000              0.141350D-01
                  7.4880000             -0.207489D+00
                  3.2050000             -0.425045D+00
                  0.5204000              0.733627D+00
            S   1   1.00
                  1.1960000              1.0000000
            S   1   1.00
                  0.1954000              1.0000000
            P   7   1.00
                761.8000000              0.236976D-02
                180.2000000              0.190199D-01
                 57.5000000              0.880807D-01
                 21.2400000              0.256377D+00
                  8.3880000              0.438711D+00
                  3.4160000              0.347569D+00
                  0.4523000             -0.523882D-02
            P   7   1.00
                761.8000000             -0.667211D-03
                180.2000000             -0.532717D-02
                 57.5000000             -0.255494D-01
                 21.2400000             -0.757197D-01
                  8.3880000             -0.141133D+00
                  3.4160000             -0.932768D-01
                  0.4523000              0.562450D+00
            P   1   1.00
                  1.2060000              1.0000000
            P   1   1.00
                  0.1545000              1.0000000
            D   1   1.00
                  5.5510000              1.0000000
            D   1   1.00
                  1.2350000              1.0000000
            D   1   1.00
                  0.4120000              1.0000000
            F   1   1.00
                  0.8900000              1.0000000
            ****
 Initial command:
 /usr/local/apps/g09/l1.exe "/wrk/irikura/Gau-31001.inp" -scrdir="/wrk/irikura/"
 Entering Link 1 = /usr/local/apps/g09/l1.exe PID=     31003.
  
 Copyright (c) 1988,1990,1992,1993,1995,1998,2003,2009,2013,
            Gaussian, Inc.  All Rights Reserved.
  
 This is part of the Gaussian(R) 09 program.  It is based on
 the Gaussian(R) 03 system (copyright 2003, Gaussian, Inc.),
 the Gaussian(R) 98 system (copyright 1998, Gaussian, Inc.),
 the Gaussian(R) 94 system (copyright 1995, Gaussian, Inc.),
 the Gaussian 92(TM) system (copyright 1992, Gaussian, Inc.),
 the Gaussian 90(TM) system (copyright 1990, Gaussian, Inc.),
 the Gaussian 88(TM) system (copyright 1988, Gaussian, Inc.),
 the Gaussian 86(TM) system (copyright 1986, Carnegie Mellon
 University), and the Gaussian 82(TM) system (copyright 1983,
 Carnegie Mellon University). Gaussian is a federally registered
 trademark of Gaussian, Inc.
  
 This software contains proprietary and confidential information,
 including trade secrets, belonging to Gaussian, Inc.
  
 This software is provided under written license and may be
 used, copied, transmitted, or stored only in accord with that
 written license.
  
 The following legend is applicable only to US Government
 contracts under FAR:
  
                    RESTRICTED RIGHTS LEGEND
  
 Use, reproduction and disclosure by the US Government is
 subject to restrictions as set forth in subparagraphs (a)
 and (c) of the Commercial Computer Software - Restricted
 Rights clause in FAR 52.227-19.
  
 Gaussian, Inc.
 340 Quinnipiac St., Bldg. 40, Wallingford CT 06492
  
  
 ---------------------------------------------------------------
 Warning -- This program may not be used in any manner that
 competes with the business of Gaussian, Inc. or will provide
 assistance to any competitor of Gaussian, Inc.  The licensee
 of this program is prohibited from giving any competitor of
 Gaussian, Inc. access to this program.  By using this program,
 the user acknowledges that Gaussian, Inc. is engaged in the
 business of creating and licensing software in the field of
 computational chemistry and represents and warrants to the
 licensee that it is not a competitor of Gaussian, Inc. and that
 it will not use this program in any manner prohibited above.
 ---------------------------------------------------------------
  

 Cite this work as:
 Gaussian 09, Revision D.01,
 M. J. Frisch, G. W. Trucks, H. B. Schlegel, G. E. Scuseria, 
 M. A. Robb, J. R. Cheeseman, G. Scalmani, V. Barone, B. Mennucci, 
 G. A. Petersson, H. Nakatsuji, M. Caricato, X. Li, H. P. Hratchian, 
 A. F. Izmaylov, J. Bloino, G. Zheng, J. L. Sonnenberg, M. Hada, 
 M. Ehara, K. Toyota, R. Fukuda, J. Hasegawa, M. Ishida, T. Nakajima, 
 Y. Honda, O. Kitao, H. Nakai, T. Vreven, J. A. Montgomery, Jr., 
 J. E. Peralta, F. Ogliaro, M. Bearpark, J. J. Heyd, E. Brothers, 
 K. N. Kudin, V. N. Staroverov, T. Keith, R. Kobayashi, J. Normand, 
 K. Raghavachari, A. Rendell, J. C. Burant, S. S. Iyengar, J. Tomasi, 
 M. Cossi, N. Rega, J. M. Millam, M. Klene, J. E. Knox, J. B. Cross, 
 V. Bakken, C. Adamo, J. Jaramillo, R. Gomperts, R. E. Stratmann, 
 O. Yazyev, A. J. Austin, R. Cammi, C. Pomelli, J. W. Ochterski, 
 R. L. Martin, K. Morokuma, V. G. Zakrzewski, G. A. Voth, 
 P. Salvador, J. J. Dannenberg, S. Dapprich, A. D. Daniels, 
 O. Farkas, J. B. Foresman, J. V. Ortiz, J. Cioslowski, 
 and D. J. Fox, Gaussian, Inc., Wallingford CT, 2013.
 
 ******************************************
 Gaussian 09:  ES64L-G09RevD.01 24-Apr-2013
                17-May-2017 
 ******************************************
 %chk=h2s.chk
 %nprocs=4
 Will use up to    4 processors via shared memory.
 %mem=1000mw
 ---------------------------------------------------------------
 # CCSD(T,maxcyc=100)/GEN gfinput geom=check scf=xqc guess=check
 ---------------------------------------------------------------
 1/29=2,38=1/1;
 2/12=2,40=1/2;
 3/5=7,11=9,14=-4,16=1,24=10,25=1,30=1,116=-2/1,2,3;
 4/5=1/1;
 5/5=2,8=3,13=1,38=6/2,8;
 8/6=4,9=120000,10=1/1,4;
 9/5=7,6=100,14=2/13;
 6/7=2,8=2,9=2,10=2/1;
 99/5=1,9=1/99;
 -----------------------------------------------
 BEB step 7: high-spin CCSD(T) for cation of h2s
 -----------------------------------------------
 Structure from the checkpoint file:  "h2s.chk"
 Charge =  1 Multiplicity = 4
 Redundant internal coordinates found in file.
 S,0,0.,0.,-0.2002863446
 H,0,0.,-0.9771538186,0.7301933373
 H,0,0.,0.9771538186,0.7301933373
 Recover connectivity data from disk.
                          Input orientation:                          
 ---------------------------------------------------------------------
 Center     Atomic      Atomic             Coordinates (Angstroms)
 Number     Number       Type             X           Y           Z
 ---------------------------------------------------------------------
      1         16           0        0.000000    0.000000   -0.200286
      2          1           0        0.000000   -0.977154    0.730193
      3          1           0        0.000000    0.977154    0.730193
 ---------------------------------------------------------------------
                    Distance matrix (angstroms):
                    1          2          3
     1  S    0.000000
     2  H    1.349304   0.000000
     3  H    1.349304   1.954308   0.000000
 Stoichiometry    H2S(1+,4)
 Framework group  C2V[C2(S),SGV(H2)]
 Deg. of freedom     2
 Full point group                 C2V     NOp   4
 Largest Abelian subgroup         C2V     NOp   4
 Largest concise Abelian subgroup C2      NOp   2
                         Standard orientation:                         
 ---------------------------------------------------------------------
 Center     Atomic      Atomic             Coordinates (Angstroms)
 Number     Number       Type             X           Y           Z
 ---------------------------------------------------------------------
      1         16           0        0.000000    0.000000    0.103387
      2          1           0        0.000000    0.977154   -0.827093
      3          1           0        0.000000   -0.977154   -0.827093
 ---------------------------------------------------------------------
 Rotational constants (GHZ):    307.8502742    262.5887949    141.7119494
 General basis read from cards:  (5D, 7F)
 AO basis set in the form of general basis input (Overlap normalization):
      1 0
 S  11 1.00       0.000000000000
      0.3741000000D+06  0.5425514387D-04
      0.5605000000D+05  0.4211740233D-03
      0.1276000000D+05  0.2208660093D-02
      0.3615000000D+04  0.9199598747D-02
      0.1183000000D+04  0.3213735189D-01
      0.4288000000D+03  0.9474510874D-01
      0.1678000000D+03  0.2238325196D+00
      0.6947000000D+02  0.3748153922D+00
      0.2984000000D+02  0.3296923916D+00
      0.1272000000D+02  0.8466651175D-01
      0.5244000000D+01 -0.1203629464D-02
 S   9 1.00       0.000000000000
      0.3615000000D+04 -0.6405426371D-05
      0.1183000000D+04 -0.1906347926D-03
      0.4288000000D+03 -0.1488844015D-02
      0.1678000000D+03 -0.1015342848D-01
      0.6947000000D+02 -0.4321033692D-01
      0.2984000000D+02 -0.1051987538D+00
      0.1272000000D+02  0.3204694613D-01
      0.5244000000D+01  0.5225211130D+00
      0.2219000000D+01  0.5465586544D+00
 S   8 1.00       0.000000000000
      0.1183000000D+04  0.4255731358D-05
      0.1678000000D+03  0.2129297248D-03
      0.6947000000D+02  0.8581485113D-03
      0.2984000000D+02  0.4433883758D-02
      0.1272000000D+02 -0.1091026120D-02
      0.5244000000D+01 -0.7369714562D-01
      0.2219000000D+01 -0.3500714694D+00
      0.3490000000D+00  0.1160046718D+01
 S   1 1.00       0.000000000000
      0.7767000000D+00  0.1000000000D+01
 S   1 1.00       0.000000000000
      0.1322000000D+00  0.1000000000D+01
 P   6 1.00       0.000000000000
      0.5744000000D+03  0.2495012116D-02
      0.1358000000D+03  0.1985550782D-01
      0.4319000000D+02  0.9117959218D-01
      0.1587000000D+02  0.2622309055D+00
      0.6208000000D+01  0.4468316811D+00
      0.2483000000D+01  0.3655010168D+00
 P   6 1.00       0.000000000000
      0.1358000000D+03 -0.7063564772D-05
      0.4319000000D+02 -0.1065706972D-02
      0.1587000000D+02 -0.5910415060D-02
      0.6208000000D+01 -0.2268752450D-01
      0.2483000000D+01 -0.1079348503D-01
      0.3229000000D+00  0.1005933518D+01
 P   1 1.00       0.000000000000
      0.8688000000D+00  0.1000000000D+01
 P   1 1.00       0.000000000000
      0.1098000000D+00  0.1000000000D+01
 D   1 1.00       0.000000000000
      0.3756000000D+01  0.1000000000D+01
 D   1 1.00       0.000000000000
      0.8120000000D+00  0.1000000000D+01
 D   1 1.00       0.000000000000
      0.2730000000D+00  0.1000000000D+01
 F   1 1.00       0.000000000000
      0.5570000000D+00  0.1000000000D+01
 ****
      2 0
 S   3 1.00       0.000000000000
      0.3387000000D+02  0.2549486323D-01
      0.5095000000D+01  0.1903627659D+00
      0.1159000000D+01  0.8521620222D+00
 S   1 1.00       0.000000000000
      0.3258000000D+00  0.1000000000D+01
 S   1 1.00       0.000000000000
      0.1027000000D+00  0.1000000000D+01
 P   1 1.00       0.000000000000
      0.1407000000D+01  0.1000000000D+01
 P   1 1.00       0.000000000000
      0.3880000000D+00  0.1000000000D+01
 D   1 1.00       0.000000000000
      0.1057000000D+01  0.1000000000D+01
 ****
      3 0
 S   3 1.00       0.000000000000
      0.3387000000D+02  0.2549486323D-01
      0.5095000000D+01  0.1903627659D+00
      0.1159000000D+01  0.8521620222D+00
 S   1 1.00       0.000000000000
      0.3258000000D+00  0.1000000000D+01
 S   1 1.00       0.000000000000
      0.1027000000D+00  0.1000000000D+01
 P   1 1.00       0.000000000000
      0.1407000000D+01  0.1000000000D+01
 P   1 1.00       0.000000000000
      0.3880000000D+00  0.1000000000D+01
 D   1 1.00       0.000000000000
      0.1057000000D+01  0.1000000000D+01
 ****

 There are    32 symmetry adapted cartesian basis functions of A1  symmetry.
 There are     8 symmetry adapted cartesian basis functions of A2  symmetry.
 There are    14 symmetry adapted cartesian basis functions of B1  symmetry.
 There are    21 symmetry adapted cartesian basis functions of B2  symmetry.
 There are    27 symmetry adapted basis functions of A1  symmetry.
 There are     8 symmetry adapted basis functions of A2  symmetry.
 There are    13 symmetry adapted basis functions of B1  symmetry.
 There are    19 symmetry adapted basis functions of B2  symmetry.
    67 basis functions,   134 primitive gaussians,    75 cartesian basis functions
    10 alpha electrons        7 beta electrons
       nuclear repulsion energy        12.8207021715 Hartrees.
 NAtoms=    3 NActive=    3 NUniq=    2 SFac= 2.25D+00 NAtFMM=   60 NAOKFM=F Big=F
 Integral buffers will be    131072 words long.
 Raffenetti 2 integral format.
 Two-electron integral symmetry is turned on.
 One-electron integrals computed using PRISM.
 NBasis=    67 RedAO= T EigKep=  4.80D-03  NBF=    27     8    13    19
 NBsUse=    67 1.00D-06 EigRej= -1.00D+00 NBFU=    27     8    13    19
 Initial guess from the checkpoint file:  "h2s.chk"
 B after Tr=     0.000000    0.000000    0.000000
         Rot=    1.000000    0.000000    0.000000    0.000000 Ang=   0.00 deg.
 Initial guess orbital symmetries:
 Alpha Orbitals:
       Occupied  (A1) (A1) (B2) (A1) (B1) (A1) (B2) (A1) (B1) (A1)
       Virtual   (B2) (B2) (A1) (B1) (A1) (A1) (A2) (B1) (B2) (A1)
                 (A1) (B2) (A2) (B2) (B1) (A1) (B2) (A1) (A2) (A1)
                 (B1) (A1) (B2) (B1) (B2) (A1) (B1) (B2) (A2) (A1)
                 (B1) (A1) (A1) (B2) (B2) (A2) (A1) (B2) (B1) (B1)
                 (B2) (A2) (A1) (A1) (B2) (A2) (B1) (B2) (A1) (A1)
                 (B2) (A1) (B1) (A2) (A1) (A1) (B2)
 Beta  Orbitals:
       Occupied  (A1) (A1) (B2) (A1) (B1) (A1) (B2)
       Virtual   (A1) (B1) (A1) (B2) (B2) (A1) (B1) (A1) (A1) (A2)
                 (B1) (B2) (A1) (A1) (B2) (A2) (B2) (B1) (A1) (B2)
                 (A1) (A2) (A1) (B1) (A1) (B2) (B1) (B2) (A1) (B1)
                 (B2) (A2) (A1) (B1) (A1) (A1) (B2) (B2) (A2) (A1)
                 (B2) (B1) (B1) (B2) (A2) (A1) (A1) (B2) (A2) (B1)
                 (B2) (A1) (A1) (B2) (A1) (B1) (A2) (A1) (A1) (B2)
 Initial guess <Sx>= 0.0000 <Sy>= 0.0000 <Sz>= 1.5000 <S**2>= 3.7500 S= 1.5000
 Keep R1 and R2 ints in memory in symmetry-blocked form, NReq=4614191.
 Requested convergence on RMS density matrix=1.00D-08 within  64 cycles.
 Requested convergence on MAX density matrix=1.00D-06.
 Requested convergence on             energy=1.00D-06.
 No special actions if energy rises.
 SCF Done:  E(UHF) =  -398.028138199     A.U. after   16 cycles
            NFock= 16  Conv=0.36D-08     -V/T= 1.9987
 <Sx>= 0.0000 <Sy>= 0.0000 <Sz>= 1.5000 <S**2>= 3.7773 S= 1.5068
 <L.S>= 0.000000000000E+00
 Annihilation of the first spin contaminant:
 S**2 before annihilation     3.7773,   after     3.7502
 QCSCF skips out because SCF is already converged.
 ExpMin= 1.03D-01 ExpMax= 3.74D+05 ExpMxC= 1.18D+03 IAcc=3 IRadAn=         5 AccDes= 0.00D+00
 HarFok:  IExCor=  205 AccDes= 0.00D+00 IRadAn=         5 IDoV=-2 UseB2=F ITyADJ=14
 ICtDFT= 12500011 ScaDFX=  1.000000  1.000000  1.000000  1.000000
 Range of M.O.s used for correlation:     6    67
 NBasis=    67 NAE=    10 NBE=     7 NFC=     5 NFV=     0
 NROrb=     62 NOA=     5 NOB=     2 NVA=    57 NVB=    60
 Semi-Direct transformation.
 ModeAB=           4 MOrb=             5 LenV=    1048252747
 LASXX=       141930 LTotXX=      141930 LenRXX=      293373
 LTotAB=      151443 MaxLAS=      649140 LenRXY=           0
 NonZer=      435303 LenScr=     1305600 LnRSAI=      649140
 LnScr1=     1571840 LExtra=           0 Total=      3819953
 MaxDsk=          -1 SrtSym=           T ITran=            4
 JobTyp=1 Pass  1:  I=   1 to   5.
 (rs|ai) integrals will be sorted in core.
 ModeAB=           4 MOrb=             2 LenV=    1048252747
 LASXX=        59328 LTotXX=       59328 LenRXX=      112425
 LTotAB=       53097 MaxLAS=      259656 LenRXY=           0
 NonZer=      171753 LenScr=      785920 LnRSAI=      259656
 LnScr1=      785920 LExtra=           0 Total=      1943921
 MaxDsk=          -1 SrtSym=           T ITran=            4
 JobTyp=2 Pass  1:  I=   1 to   2.
 (rs|ai) integrals will be sorted in core.
 Spin components of T(2) and E(2):
     alpha-alpha T2 =       0.1199264842D-01 E2=     -0.2860050151D-01
     alpha-beta  T2 =       0.3833384342D-01 E2=     -0.9985167306D-01
     beta-beta   T2 =       0.9678706279D-03 E2=     -0.2373553317D-02
 ANorm=    0.1025326466D+01
 E2 =    -0.1308257279D+00 EUMP2 =    -0.39815896392717D+03
 (S**2,0)=  0.37773D+01           (S**2,1)=  0.37609D+01
 E(PUHF)=      -0.39803142083D+03        E(PMP2)=      -0.39816126578D+03
 Keep R2 and R3 ints in memory in symmetry-blocked form, NReq=4543646.
 Iterations= 100 Convergence= 0.100D-06
 Iteration Nr.   1
 **********************
 DD1Dir will call FoFMem   1 times, MxPair=        32
 NAB=    10 NAA=    10 NBB=     1.
 E(PMP3)=      -0.39818323755D+03
 MP4(R+Q)=  0.33636799D-02
 E3=       -0.22910164D-01        EUMP3=      -0.39818187409D+03
 E4(DQ)=   -0.33482368D-02        UMP4(DQ)=   -0.39818522233D+03
 E4(SDQ)=  -0.47182165D-02        UMP4(SDQ)=  -0.39818659231D+03
 DE(Corr)= -0.15039739     E(Corr)=     -398.17853559    
 NORM(A)=   0.10387549D+01
 Iteration Nr.   2
 **********************
 DD1Dir will call FoFMem   1 times, MxPair=        32
 NAB=    10 NAA=    10 NBB=     1.
 DE(Corr)= -0.15736095     E(CORR)=     -398.18549914     Delta=-6.96D-03
 NORM(A)=   0.10475584D+01
 Iteration Nr.   3
 **********************
 DD1Dir will call FoFMem   1 times, MxPair=        32
 NAB=    10 NAA=    10 NBB=     1.
 DE(Corr)= -0.16053345     E(CORR)=     -398.18867165     Delta=-3.17D-03
 NORM(A)=   0.10560190D+01
 Iteration Nr.   4
 **********************
 DD1Dir will call FoFMem   1 times, MxPair=        32
 NAB=    10 NAA=    10 NBB=     1.
 DE(Corr)= -0.16238250     E(CORR)=     -398.19052070     Delta=-1.85D-03
 NORM(A)=   0.10629136D+01
 Iteration Nr.   5
 **********************
 DD1Dir will call FoFMem   1 times, MxPair=        32
 NAB=    10 NAA=    10 NBB=     1.
 DE(Corr)= -0.16313338     E(CORR)=     -398.19127158     Delta=-7.51D-04
 NORM(A)=   0.10651282D+01
 Iteration Nr.   6
 **********************
 DD1Dir will call FoFMem   1 times, MxPair=        32
 NAB=    10 NAA=    10 NBB=     1.
 DE(Corr)= -0.16327277     E(CORR)=     -398.19141097     Delta=-1.39D-04
 NORM(A)=   0.10657156D+01
 Iteration Nr.   7
 **********************
 DD1Dir will call FoFMem   1 times, MxPair=        32
 NAB=    10 NAA=    10 NBB=     1.
 DE(Corr)= -0.16331435     E(CORR)=     -398.19145255     Delta=-4.16D-05
 NORM(A)=   0.10658168D+01
 Iteration Nr.   8
 **********************
 DD1Dir will call FoFMem   1 times, MxPair=        32
 NAB=    10 NAA=    10 NBB=     1.
 DE(Corr)= -0.16332251     E(CORR)=     -398.19146071     Delta=-8.16D-06
 NORM(A)=   0.10658530D+01
 Iteration Nr.   9
 **********************
 DD1Dir will call FoFMem   1 times, MxPair=        32
 NAB=    10 NAA=    10 NBB=     1.
 DE(Corr)= -0.16332347     E(CORR)=     -398.19146167     Delta=-9.60D-07
 NORM(A)=   0.10658615D+01
 Iteration Nr.  10
 **********************
 DD1Dir will call FoFMem   1 times, MxPair=        32
 NAB=    10 NAA=    10 NBB=     1.
 DE(Corr)= -0.16332237     E(CORR)=     -398.19146056     Delta= 1.10D-06
 NORM(A)=   0.10658560D+01
 Iteration Nr.  11
 **********************
 DD1Dir will call FoFMem   1 times, MxPair=        32
 NAB=    10 NAA=    10 NBB=     1.
 DE(Corr)= -0.16332086     E(CORR)=     -398.19145906     Delta= 1.51D-06
 NORM(A)=   0.10658464D+01
 Iteration Nr.  12
 **********************
 DD1Dir will call FoFMem   1 times, MxPair=        32
 NAB=    10 NAA=    10 NBB=     1.
 DE(Corr)= -0.16331947     E(CORR)=     -398.19145767     Delta= 1.39D-06
 NORM(A)=   0.10658384D+01
 Iteration Nr.  13
 **********************
 DD1Dir will call FoFMem   1 times, MxPair=        32
 NAB=    10 NAA=    10 NBB=     1.
 DE(Corr)= -0.16331855     E(CORR)=     -398.19145675     Delta= 9.20D-07
 NORM(A)=   0.10658319D+01
 Iteration Nr.  14
 **********************
 DD1Dir will call FoFMem   1 times, MxPair=        32
 NAB=    10 NAA=    10 NBB=     1.
 DE(Corr)= -0.16331794     E(CORR)=     -398.19145613     Delta= 6.12D-07
 NORM(A)=   0.10658294D+01
 Iteration Nr.  15
 **********************
 DD1Dir will call FoFMem   1 times, MxPair=        32
 NAB=    10 NAA=    10 NBB=     1.
 DE(Corr)= -0.16331775     E(CORR)=     -398.19145594     Delta= 1.90D-07
 NORM(A)=   0.10658285D+01
 Iteration Nr.  16
 **********************
 DD1Dir will call FoFMem   1 times, MxPair=        32
 NAB=    10 NAA=    10 NBB=     1.
 DE(Corr)= -0.16331768     E(CORR)=     -398.19145588     Delta= 6.16D-08
 NORM(A)=   0.10658281D+01
 Dominant configurations:
 ***********************
 Spin Case        I    J    A    B          Value
   ABAB          10    7   11    8       0.206029D+00
 Largest amplitude= 2.06D-01
 Time for triples=        2.57 seconds.
 T4(CCSD)= -0.91173395D-02
 T5(CCSD)=  0.18586611D-03
 CCSD(T)= -0.39820038736D+03

 S**2, projected HF & approx projected MPn energies after annihilation of
 unwanted spin states (see manual for definitions):

 spins       (S**2,0) (S**2,1)    PUHF        PMP2        PMP3        PMP4
 annihilated
 s+1         3.74985  3.75004 -398.031421 -398.161266 -398.183238
 s+1,s+2     3.75000  3.75000 -398.031405 -398.161252 -398.183226

 Discarding MO integrals.

 **********************************************************************

            Population analysis using the SCF density.

 **********************************************************************

 Orbital symmetries:
 Alpha Orbitals:
       Occupied  (A1) (A1) (A1) (B1) (B2) (A1) (A1) (B2) (B1) (A1)
       Virtual   (B2) (A1) (B2) (A1) (B1) (A1) (B1) (A2) (B2) (A1)
                 (A1) (B2) (A2) (B2) (B1) (A1) (B2) (A1) (B1) (A2)
                 (A1) (A1) (B1) (B2) (B2) (A1) (B1) (B2) (A2) (A1)
                 (B1) (A1) (A1) (B2) (B2) (A2) (A1) (B2) (B1) (B1)
                 (B2) (A2) (A1) (A1) (A2) (B2) (B1) (B2) (A1) (A1)
                 (B2) (A1) (B1) (A2) (A1) (A1) (B2)
 Beta  Orbitals:
       Occupied  (A1) (A1) (B2) (A1) (B1) (A1) (B2)
       Virtual   (A1) (B1) (B2) (A1) (B2) (A1) (A1) (B1) (A2) (A1)
                 (B1) (B2) (A1) (A1) (B2) (A2) (B2) (B1) (A1) (B2)
                 (A1) (A2) (A1) (B1) (A1) (B1) (B2) (B2) (A1) (B1)
                 (B2) (A2) (A1) (B1) (A1) (A1) (B2) (B2) (A2) (A1)
                 (B2) (B1) (B1) (B2) (A2) (A1) (A1) (A2) (B2) (B1)
                 (B2) (A1) (A1) (B2) (A1) (B1) (A2) (A1) (A1) (B2)
 The electronic state is 4-B1.
 Alpha  occ. eigenvalues --  -92.44902  -9.44735  -7.13792  -7.13539  -7.11501
 Alpha  occ. eigenvalues --   -1.46408  -0.99562  -0.98459  -0.89605  -0.44596
 Alpha virt. eigenvalues --   -0.20700  -0.00017   0.02926   0.06479   0.07286
 Alpha virt. eigenvalues --    0.08347   0.10394   0.10623   0.22742   0.30348
 Alpha virt. eigenvalues --    0.42804   0.47893   0.67397   0.70710   0.72844
 Alpha virt. eigenvalues --    0.75197   1.05553   1.07394   1.28844   1.30418
 Alpha virt. eigenvalues --    1.31187   1.37746   1.45859   1.49050   1.60599
 Alpha virt. eigenvalues --    1.60687   1.67425   1.73115   1.76706   1.80188
 Alpha virt. eigenvalues --    1.85423   2.12584   2.47753   2.50722   2.57281
 Alpha virt. eigenvalues --    3.13076   3.18250   3.19668   3.33552   3.56919
 Alpha virt. eigenvalues --    3.59807   3.60206   3.61083   3.69568   3.93645
 Alpha virt. eigenvalues --    3.94608   3.96733   4.14454   4.19531   4.23904
 Alpha virt. eigenvalues --    4.68543   5.56812   6.82064   6.83978   6.92233
 Alpha virt. eigenvalues --    7.31180   7.76455
  Beta  occ. eigenvalues --  -92.42496  -9.41607  -7.10679  -7.08460  -7.07833
  Beta  occ. eigenvalues --   -1.23929  -0.91030
  Beta virt. eigenvalues --   -0.42043  -0.31076  -0.09834  -0.08306   0.06320
  Beta virt. eigenvalues --    0.10499   0.14821   0.18531   0.18533   0.19906
  Beta virt. eigenvalues --    0.22267   0.25927   0.36786   0.51254   0.55381
  Beta virt. eigenvalues --    0.72477   0.75832   0.80171   0.82051   1.09764
  Beta virt. eigenvalues --    1.14586   1.34861   1.35394   1.36617   1.44105
  Beta virt. eigenvalues --    1.52473   1.52562   1.65427   1.70073   1.76050
  Beta virt. eigenvalues --    1.76633   1.82649   1.84933   1.95243   2.19718
  Beta virt. eigenvalues --    2.52924   2.54727   2.61699   3.15657   3.21224
  Beta virt. eigenvalues --    3.22588   3.36259   3.60599   3.62457   3.63982
  Beta virt. eigenvalues --    3.65226   3.73294   3.96645   3.97771   3.99804
  Beta virt. eigenvalues --    4.17958   4.22109   4.27530   4.70658   5.60456
  Beta virt. eigenvalues --    6.84817   6.85586   6.93922   7.33299   7.78152
          Condensed to atoms (all electrons):
               1          2          3
     1  S   16.093141  -0.570027  -0.570027
     2  H   -0.570027   1.272691   0.320793
     3  H   -0.570027   0.320793   1.272691
          Atomic-Atomic Spin Densities.
               1          2          3
     1  S    3.614930  -0.854538  -0.854538
     2  H   -0.854538   1.068069   0.333542
     3  H   -0.854538   0.333542   1.068069
 Mulliken charges and spin densities:
               1          2
     1  S    1.046913   1.905854
     2  H   -0.023456   0.547073
     3  H   -0.023456   0.547073
 Sum of Mulliken charges =   1.00000   3.00000
 Mulliken charges and spin densities with hydrogens summed into heavy atoms:
               1          2
     1  S    1.000000   3.000000
 Electronic spatial extent (au):  <R**2>=             39.0830
 Charge=              1.0000 electrons
 Dipole moment (field-independent basis, Debye):
    X=              0.0000    Y=              0.0000    Z=              0.5288  Tot=              0.5288
 Quadrupole moment (field-independent basis, Debye-Ang):
   XX=            -11.5002   YY=            -13.0059   ZZ=            -11.4964
   XY=              0.0000   XZ=              0.0000   YZ=              0.0000
 Traceless Quadrupole moment (field-independent basis, Debye-Ang):
   XX=              0.5006   YY=             -1.0051   ZZ=              0.5044
   XY=              0.0000   XZ=              0.0000   YZ=              0.0000
 Octapole moment (field-independent basis, Debye-Ang**2):
  XXX=              0.0000  YYY=              0.0000  ZZZ=              2.3611  XYY=              0.0000
  XXY=              0.0000  XXZ=              0.9211  XZZ=              0.0000  YZZ=              0.0000
  YYZ=              1.6565  XYZ=              0.0000
 Hexadecapole moment (field-independent basis, Debye-Ang**3):
 XXXX=            -11.8199 YYYY=            -34.0547 ZZZZ=            -27.1211 XXXY=              0.0000
 XXXZ=              0.0000 YYYX=              0.0000 YYYZ=              0.0000 ZZZX=              0.0000
 ZZZY=              0.0000 XXYY=             -7.0338 XXZZ=             -6.0741 YYZZ=            -10.0142
 XXYZ=              0.0000 YYXZ=              0.0000 ZZXY=              0.0000
 N-N= 1.282070217148D+01 E-N=-9.669210221163D+02  KE= 3.985546687221D+02
 Symmetry A1   KE= 3.229270865322D+02
 Symmetry A2   KE= 5.384840640707D-33
 Symmetry B1   KE= 3.736529617923D+01
 Symmetry B2   KE= 3.826228601075D+01
 1\1\GINC-GAMBA\SP\UCCSD(T)-FC\Gen\H2S1(1+,4)\IRIKURA\17-May-2017\0\\# 
 CCSD(T,maxcyc=100)/GEN gfinput geom=check scf=xqc guess=check\\BEB ste
 p 7: high-spin CCSD(T) for cation of h2s\\1,4\S,0,0.,0.,-0.2002863446\
 H,0,0.,-0.9771538186,0.7301933373\H,0,0.,0.9771538186,0.7301933373\\Ve
 rsion=ES64L-G09RevD.01\State=4-B1\HF=-398.0281382\MP2=-398.1589639\MP3
 =-398.1818741\MP4D=-398.188586\MP4DQ=-398.1852223\PUHF=-398.0314208\PM
 P2-0=-398.1612658\PMP3-0=-398.1832376\MP4SDQ=-398.1865923\CCSD=-398.19
 14559\CCSD(T)=-398.2003874\S2=3.777264\S2-1=3.760885\S2A=3.750203\RMSD
 =3.572e-09\PG=C02V [C2(S1),SGV(H2)]\\@


 THE PROMISED LAND ALWAYS LIES ON THE OTHER SIDE OF A WILDERNESS.

                         -- HAVELOCK ELLIS
 Job cpu time:       0 days  0 hours  0 minutes 28.9 seconds.
 File lengths (MBytes):  RWF=     38 Int=      0 D2E=      0 Chk=      1 Scr=      1
 Normal termination of Gaussian 09 at Wed May 17 13:40:36 2017.
