 Entering Gaussian System, Link 0=g09
 Initial command:
 /usr/local/apps/g09/l1.exe "/wrk/irikura/Gau-30592.inp" -scrdir="/wrk/irikura/"
 Entering Link 1 = /usr/local/apps/g09/l1.exe PID=     30594.
  
 Copyright (c) 1988,1990,1992,1993,1995,1998,2003,2009,2013,
            Gaussian, Inc.  All Rights Reserved.
  
 This is part of the Gaussian(R) 09 program.  It is based on
 the Gaussian(R) 03 system (copyright 2003, Gaussian, Inc.),
 the Gaussian(R) 98 system (copyright 1998, Gaussian, Inc.),
 the Gaussian(R) 94 system (copyright 1995, Gaussian, Inc.),
 the Gaussian 92(TM) system (copyright 1992, Gaussian, Inc.),
 the Gaussian 90(TM) system (copyright 1990, Gaussian, Inc.),
 the Gaussian 88(TM) system (copyright 1988, Gaussian, Inc.),
 the Gaussian 86(TM) system (copyright 1986, Carnegie Mellon
 University), and the Gaussian 82(TM) system (copyright 1983,
 Carnegie Mellon University). Gaussian is a federally registered
 trademark of Gaussian, Inc.
  
 This software contains proprietary and confidential information,
 including trade secrets, belonging to Gaussian, Inc.
  
 This software is provided under written license and may be
 used, copied, transmitted, or stored only in accord with that
 written license.
  
 The following legend is applicable only to US Government
 contracts under FAR:
  
                    RESTRICTED RIGHTS LEGEND
  
 Use, reproduction and disclosure by the US Government is
 subject to restrictions as set forth in subparagraphs (a)
 and (c) of the Commercial Computer Software - Restricted
 Rights clause in FAR 52.227-19.
  
 Gaussian, Inc.
 340 Quinnipiac St., Bldg. 40, Wallingford CT 06492
  
  
 ---------------------------------------------------------------
 Warning -- This program may not be used in any manner that
 competes with the business of Gaussian, Inc. or will provide
 assistance to any competitor of Gaussian, Inc.  The licensee
 of this program is prohibited from giving any competitor of
 Gaussian, Inc. access to this program.  By using this program,
 the user acknowledges that Gaussian, Inc. is engaged in the
 business of creating and licensing software in the field of
 computational chemistry and represents and warrants to the
 licensee that it is not a competitor of Gaussian, Inc. and that
 it will not use this program in any manner prohibited above.
 ---------------------------------------------------------------
  

 Cite this work as:
 Gaussian 09, Revision D.01,
 M. J. Frisch, G. W. Trucks, H. B. Schlegel, G. E. Scuseria, 
 M. A. Robb, J. R. Cheeseman, G. Scalmani, V. Barone, B. Mennucci, 
 G. A. Petersson, H. Nakatsuji, M. Caricato, X. Li, H. P. Hratchian, 
 A. F. Izmaylov, J. Bloino, G. Zheng, J. L. Sonnenberg, M. Hada, 
 M. Ehara, K. Toyota, R. Fukuda, J. Hasegawa, M. Ishida, T. Nakajima, 
 Y. Honda, O. Kitao, H. Nakai, T. Vreven, J. A. Montgomery, Jr., 
 J. E. Peralta, F. Ogliaro, M. Bearpark, J. J. Heyd, E. Brothers, 
 K. N. Kudin, V. N. Staroverov, T. Keith, R. Kobayashi, J. Normand, 
 K. Raghavachari, A. Rendell, J. C. Burant, S. S. Iyengar, J. Tomasi, 
 M. Cossi, N. Rega, J. M. Millam, M. Klene, J. E. Knox, J. B. Cross, 
 V. Bakken, C. Adamo, J. Jaramillo, R. Gomperts, R. E. Stratmann, 
 O. Yazyev, A. J. Austin, R. Cammi, C. Pomelli, J. W. Ochterski, 
 R. L. Martin, K. Morokuma, V. G. Zakrzewski, G. A. Voth, 
 P. Salvador, J. J. Dannenberg, S. Dapprich, A. D. Daniels, 
 O. Farkas, J. B. Foresman, J. V. Ortiz, J. Cioslowski, 
 and D. J. Fox, Gaussian, Inc., Wallingford CT, 2013.
 
 ******************************************
 Gaussian 09:  ES64L-G09RevD.01 24-Apr-2013
                17-May-2017 
 ******************************************
 %chk=h2s.chk
 %nprocs=4
 Will use up to    4 processors via shared memory.
 %mem=1000mw
 ---------------------------------------
 # B3LYP/GEN gfinput OPT FREQ scf=xqc 6D
 ---------------------------------------
 1/14=-1,18=20,19=15,26=3,38=1/1,3;
 2/9=110,12=2,17=6,18=5,40=1/2;
 3/5=7,8=2,11=2,16=1,24=10,25=1,30=1,71=1,74=-5/1,2,3;
 4//1;
 5/5=2,8=3,13=1,38=5/2,8;
 6/7=2,8=2,9=2,10=2,28=1/1;
 7//1,2,3,16;
 1/14=-1,18=20,19=15,26=3/3(2);
 2/9=110/2;
 99//99;
 2/9=110/2;
 3/5=7,6=1,8=2,11=2,16=1,25=1,30=1,71=1,74=-5,82=7/1,2,3;
 4/5=5,16=3,69=1/1;
 5/5=2,8=3,13=1,38=5/2,8;
 7//1,2,3,16;
 1/14=-1,18=20,19=15,26=3/3(-5);
 2/9=110/2;
 6/7=2,8=2,9=2,10=2,19=2,28=1/1;
 99/9=1/99;
 ----------------------------------
 BEB step 1: geom and freqs for h2s
 ----------------------------------
 Symbolic Z-matrix:
 Charge =  0 Multiplicity = 1
 S                     0.        0.       -0.08401 
 H                     0.       -1.0698    0.67205 
 H                     0.        1.0698    0.67205 
 

 GradGradGradGradGradGradGradGradGradGradGradGradGradGradGradGradGradGrad
 Berny optimization.
 Initialization pass.
                           ----------------------------
                           !    Initial Parameters    !
                           ! (Angstroms and Degrees)  !
 --------------------------                            --------------------------
 ! Name  Definition              Value          Derivative Info.                !
 --------------------------------------------------------------------------------
 ! R1    R(1,2)                  1.31           estimate D2E/DX2                !
 ! R2    R(1,3)                  1.31           estimate D2E/DX2                !
 ! A1    A(2,1,3)              109.5            estimate D2E/DX2                !
 --------------------------------------------------------------------------------
 Trust Radius=3.00D-01 FncErr=1.00D-07 GrdErr=1.00D-06
 Number of steps in this run=     20 maximum allowed number of steps=    100.
 GradGradGradGradGradGradGradGradGradGradGradGradGradGradGradGradGradGrad

                          Input orientation:                          
 ---------------------------------------------------------------------
 Center     Atomic      Atomic             Coordinates (Angstroms)
 Number     Number       Type             X           Y           Z
 ---------------------------------------------------------------------
      1         16           0        0.000000    0.000000   -0.084007
      2          1           0        0.000000   -1.069800    0.672054
      3          1           0        0.000000    1.069800    0.672054
 ---------------------------------------------------------------------
                    Distance matrix (angstroms):
                    1          2          3
     1  S    0.000000
     2  H    1.310000   0.000000
     3  H    1.310000   2.139601   0.000000
 Stoichiometry    H2S
 Framework group  C2V[C2(S),SGV(H2)]
 Deg. of freedom     2
 Full point group                 C2V     NOp   4
 Largest Abelian subgroup         C2V     NOp   4
 Largest concise Abelian subgroup C2      NOp   2
                         Standard orientation:                         
 ---------------------------------------------------------------------
 Center     Atomic      Atomic             Coordinates (Angstroms)
 Number     Number       Type             X           Y           Z
 ---------------------------------------------------------------------
      1         16           0        0.000000    0.000000    0.084007
      2          1           0        0.000000    1.069800   -0.672054
      3          1           0        0.000000   -1.069800   -0.672054
 ---------------------------------------------------------------------
 Rotational constants (GHZ):    466.2733347    219.0768626    149.0474500
 General basis read from cards:  (6D, 7F)
 AO basis set in the form of general basis input (Overlap normalization):
      1 0
 S   6 1.00       0.000000000000
      0.2191710000D+05  0.1869240849D-02
      0.3301490000D+04  0.1423030646D-01
      0.7541460000D+03  0.6969623166D-01
      0.2127110000D+03  0.2384871083D+00
      0.6798960000D+02  0.4833072195D+00
      0.2305150000D+02  0.3380741536D+00
 SP   6 1.00       0.000000000000
      0.4237350000D+03 -0.2376770499D-02  0.4061009982D-02
      0.1007100000D+03 -0.3169300665D-01  0.3068129986D-01
      0.3215990000D+02 -0.1133170238D+00  0.1304519994D+00
      0.1180790000D+02  0.5609001177D-01  0.3272049985D+00
      0.4631100000D+01  0.5922551243D+00  0.4528509980D+00
      0.1870250000D+01  0.4550060955D+00  0.2560419989D+00
 SP   3 1.00       0.000000000000
      0.2615840000D+01 -0.2503731142D+00 -0.1451048955D-01
      0.9221670000D+00  0.6695676310D-01  0.3102627765D+00
      0.3412870000D+00  0.1054506269D+01  0.7544824565D+00
 SP   1 1.00       0.000000000000
      0.1171670000D+00  0.1000000000D+01  0.1000000000D+01
 D   1 1.00       0.000000000000
      0.6500000000D+00  0.1000000000D+01
 ****
      2 0
 S   3 1.00       0.000000000000
      0.1873113696D+02  0.3349460434D-01
      0.2825394365D+01  0.2347269535D+00
      0.6401216923D+00  0.8137573261D+00
 S   1 1.00       0.000000000000
      0.1612777588D+00  0.1000000000D+01
 ****
      3 0
 S   3 1.00       0.000000000000
      0.1873113696D+02  0.3349460434D-01
      0.2825394365D+01  0.2347269535D+00
      0.6401216923D+00  0.8137573261D+00
 S   1 1.00       0.000000000000
      0.1612777588D+00  0.1000000000D+01
 ****

 There are    12 symmetry adapted cartesian basis functions of A1  symmetry.
 There are     1 symmetry adapted cartesian basis functions of A2  symmetry.
 There are     4 symmetry adapted cartesian basis functions of B1  symmetry.
 There are     6 symmetry adapted cartesian basis functions of B2  symmetry.
 There are    12 symmetry adapted basis functions of A1  symmetry.
 There are     1 symmetry adapted basis functions of A2  symmetry.
 There are     4 symmetry adapted basis functions of B1  symmetry.
 There are     6 symmetry adapted basis functions of B2  symmetry.
    23 basis functions,    60 primitive gaussians,    23 cartesian basis functions
     9 alpha electrons        9 beta electrons
       nuclear repulsion energy        13.1737913327 Hartrees.
 NAtoms=    3 NActive=    3 NUniq=    2 SFac= 2.25D+00 NAtFMM=   60 NAOKFM=F Big=F
 Integral buffers will be    131072 words long.
 Raffenetti 2 integral format.
 Two-electron integral symmetry is turned on.
 One-electron integrals computed using PRISM.
 NBasis=    23 RedAO= T EigKep=  3.04D-02  NBF=    12     1     4     6
 NBsUse=    23 1.00D-06 EigRej= -1.00D+00 NBFU=    12     1     4     6
 ExpMin= 1.17D-01 ExpMax= 2.19D+04 ExpMxC= 3.30D+03 IAcc=1 IRadAn=         1 AccDes= 0.00D+00
 Harris functional with IExCor=  402 and IRadAn=       1 diagonalized for initial guess.
 HarFok:  IExCor=  402 AccDes= 0.00D+00 IRadAn=         1 IDoV= 1 UseB2=F ITyADJ=14
 ICtDFT=  3500011 ScaDFX=  1.000000  1.000000  1.000000  1.000000
 FoFCou: FMM=F IPFlag=           0 FMFlag=      100000 FMFlg1=           0
         NFxFlg=           0 DoJE=T BraDBF=F KetDBF=T FulRan=T
         wScrn=  0.000000 ICntrl=     500 IOpCl=  0 I1Cent=   200000004 NGrid=           0
         NMat0=    1 NMatS0=      1 NMatT0=    0 NMatD0=    1 NMtDS0=    0 NMtDT0=    0
 Petite list used in FoFCou.
 Initial guess orbital symmetries:
       Occupied  (A1) (A1) (B2) (A1) (B1) (A1) (B2) (A1) (B1)
       Virtual   (A1) (B2) (A1) (B2) (A1) (B1) (B2) (A1) (A2) (A1)
                 (B1) (A1) (B2) (A1)
 The electronic state of the initial guess is 1-A1.
 Keep R1 ints in memory in symmetry-blocked form, NReq=906888.
 Requested convergence on RMS density matrix=1.00D-08 within  64 cycles.
 Requested convergence on MAX density matrix=1.00D-06.
 Requested convergence on             energy=1.00D-06.
 No special actions if energy rises.
 Integral accuracy reduced to 1.0D-05 until final iterations.
 Initial convergence to 1.0D-05 achieved.  Increase integral accuracy.
 SCF Done:  E(RB3LYP) =  -399.376346784     A.U. after   10 cycles
            NFock= 10  Conv=0.23D-08     -V/T= 2.0029
 QCSCF skips out because SCF is already converged.

 **********************************************************************

            Population analysis using the SCF density.

 **********************************************************************

 Orbital symmetries:
       Occupied  (A1) (A1) (B2) (A1) (B1) (A1) (B2) (A1) (B1)
       Virtual   (A1) (B2) (A1) (B2) (A1) (B1) (B2) (A1) (A2) (A1)
                 (B1) (A1) (B2) (A1)
 The electronic state is 1-A1.
 Alpha  occ. eigenvalues --  -88.87763  -7.94575  -5.91079  -5.90617  -5.89983
 Alpha  occ. eigenvalues --   -0.75437  -0.48767  -0.34221  -0.26124
 Alpha virt. eigenvalues --    0.03902   0.05349   0.29453   0.30196   0.35407
 Alpha virt. eigenvalues --    0.36548   0.69703   0.71496   0.75344   0.75958
 Alpha virt. eigenvalues --    0.77248   1.05173   1.24086   3.87315
          Condensed to atoms (all electrons):
               1          2          3
     1  S   15.712442   0.278638   0.278638
     2  H    0.278638   0.598597  -0.012092
     3  H    0.278638  -0.012092   0.598597
 Mulliken charges:
               1
     1  S   -0.269717
     2  H    0.134858
     3  H    0.134858
 Sum of Mulliken charges =   0.00000
 Mulliken charges with hydrogens summed into heavy atoms:
               1
     1  S    0.000000
 Electronic spatial extent (au):  <R**2>=             43.0868
 Charge=              0.0000 electrons
 Dipole moment (field-independent basis, Debye):
    X=              0.0000    Y=              0.0000    Z=             -1.5518  Tot=              1.5518
 Quadrupole moment (field-independent basis, Debye-Ang):
   XX=            -16.5092   YY=            -11.3989   ZZ=            -14.1697
   XY=              0.0000   XZ=              0.0000   YZ=              0.0000
 Traceless Quadrupole moment (field-independent basis, Debye-Ang):
   XX=             -2.4833   YY=              2.6270   ZZ=             -0.1437
   XY=              0.0000   XZ=              0.0000   YZ=              0.0000
 Octapole moment (field-independent basis, Debye-Ang**2):
  XXX=              0.0000  YYY=              0.0000  ZZZ=             -1.7937  XYY=              0.0000
  XXY=              0.0000  XXZ=             -0.7197  XZZ=              0.0000  YZZ=              0.0000
  YYZ=             -1.2579  XYZ=              0.0000
 Hexadecapole moment (field-independent basis, Debye-Ang**3):
 XXXX=            -22.9848 YYYY=            -21.1579 ZZZZ=            -22.6722 XXXY=              0.0000
 XXXZ=              0.0000 YYYX=              0.0000 YYYZ=              0.0000 ZZZX=              0.0000
 ZZZY=              0.0000 XXYY=             -7.8352 XXZZ=             -7.6907 YYZZ=             -6.8373
 XXYZ=              0.0000 YYXZ=              0.0000 ZZXY=              0.0000
 N-N= 1.317379133272D+01 E-N=-9.753938070517D+02  KE= 3.982095317554D+02
 Symmetry A1   KE= 3.218753458701D+02
 Symmetry A2   KE= 2.827150020656D-34
 Symmetry B1   KE= 3.854711449849D+01
 Symmetry B2   KE= 3.778707138686D+01
 Calling FoFJK, ICntrl=      2127 FMM=F ISym2X=1 I1Cent= 0 IOpClX= 0 NMat=1 NMatS=1 NMatT=0.
 ***** Axes restored to original set *****
 -------------------------------------------------------------------
 Center     Atomic                   Forces (Hartrees/Bohr)
 Number     Number              X              Y              Z
 -------------------------------------------------------------------
      1       16           0.000000000    0.000000000   -0.057853343
      2        1           0.000000000   -0.005166074    0.028926672
      3        1           0.000000000    0.005166074    0.028926672
 -------------------------------------------------------------------
 Cartesian Forces:  Max     0.057853343 RMS     0.023743749

 GradGradGradGradGradGradGradGradGradGradGradGradGradGradGradGradGradGrad
 Berny optimization.
 FormGI is forming the generalized inverse of G from B-inverse, IUseBI=4.
 Internal  Forces:  Max     0.051098012 RMS     0.034087017
 Search for a local minimum.
 Step number   1 out of a maximum of   20
 All quantities printed in internal units (Hartrees-Bohrs-Radians)
 Mixed Optimization -- RFO/linear search
 Second derivative matrix not updated -- first step.
 The second derivative matrix:
                          R1        R2        A1
           R1           0.28975
           R2           0.00000   0.28975
           A1           0.00000   0.00000   0.16000
 ITU=  0
     Eigenvalues ---    0.16000   0.28975   0.28975
 RFO step:  Lambda=-1.75521377D-02 EMin= 1.60000000D-01
 Linear search not attempted -- first point.
 Maximum step size (   0.300) exceeded in Quadratic search.
    -- Step size scaled by   0.989
 Iteration  1 RMS(Cart)=  0.13235555 RMS(Int)=  0.05454095
 Iteration  2 RMS(Cart)=  0.08027669 RMS(Int)=  0.00228249
 Iteration  3 RMS(Cart)=  0.00176395 RMS(Int)=  0.00000021
 Iteration  4 RMS(Cart)=  0.00000031 RMS(Int)=  0.00000000
 ClnCor:  largest displacement from symmetrization is 1.57D-15 for atom     3.
 Variable       Old X    -DE/DX   Delta X   Delta X   Delta X     New X
                                 (Linear)    (Quad)   (Total)
    R1        2.47554   0.02091   0.00000   0.06728   0.06728   2.54282
    R2        2.47554   0.02091   0.00000   0.06728   0.06728   2.54282
    A1        1.91114  -0.05110   0.00000  -0.28451  -0.28451   1.62662
         Item               Value     Threshold  Converged?
 Maximum Force            0.051098     0.000450     NO 
 RMS     Force            0.034087     0.000300     NO 
 Maximum Displacement     0.212277     0.001800     NO 
 RMS     Displacement     0.206732     0.001200     NO 
 Predicted change in Energy=-9.564775D-03
 GradGradGradGradGradGradGradGradGradGradGradGradGradGradGradGradGradGrad

                          Input orientation:                          
 ---------------------------------------------------------------------
 Center     Atomic      Atomic             Coordinates (Angstroms)
 Number     Number       Type             X           Y           Z
 ---------------------------------------------------------------------
      1         16           0        0.000000    0.000000   -0.196339
      2          1           0        0.000000   -0.977670    0.728219
      3          1           0        0.000000    0.977670    0.728219
 ---------------------------------------------------------------------
                    Distance matrix (angstroms):
                    1          2          3
     1  S    0.000000
     2  H    1.345603   0.000000
     3  H    1.345603   1.955340   0.000000
 Stoichiometry    H2S
 Framework group  C2V[C2(S),SGV(H2)]
 Deg. of freedom     2
 Full point group                 C2V     NOp   4
 Largest Abelian subgroup         C2V     NOp   4
 Largest concise Abelian subgroup C2      NOp   2
                         Standard orientation:                         
 ---------------------------------------------------------------------
 Center     Atomic      Atomic             Coordinates (Angstroms)
 Number     Number       Type             X           Y           Z
 ---------------------------------------------------------------------
      1         16           0        0.000000    0.000000    0.102729
      2          1           0        0.000000    0.977670   -0.821829
      3          1           0        0.000000   -0.977670   -0.821829
 ---------------------------------------------------------------------
 Rotational constants (GHZ):    311.8063120    262.3115497    142.4627282
 Basis read from rwf:  (6D, 7F)
 There are    12 symmetry adapted cartesian basis functions of A1  symmetry.
 There are     1 symmetry adapted cartesian basis functions of A2  symmetry.
 There are     4 symmetry adapted cartesian basis functions of B1  symmetry.
 There are     6 symmetry adapted cartesian basis functions of B2  symmetry.
 There are    12 symmetry adapted basis functions of A1  symmetry.
 There are     1 symmetry adapted basis functions of A2  symmetry.
 There are     4 symmetry adapted basis functions of B1  symmetry.
 There are     6 symmetry adapted basis functions of B2  symmetry.
    23 basis functions,    60 primitive gaussians,    23 cartesian basis functions
     9 alpha electrons        9 beta electrons
       nuclear repulsion energy        12.8550828618 Hartrees.
 NAtoms=    3 NActive=    3 NUniq=    2 SFac= 2.25D+00 NAtFMM=   60 NAOKFM=F Big=F
 Integral buffers will be    131072 words long.
 Raffenetti 2 integral format.
 Two-electron integral symmetry is turned on.
 One-electron integrals computed using PRISM.
 NBasis=    23 RedAO= T EigKep=  3.03D-02  NBF=    12     1     4     6
 NBsUse=    23 1.00D-06 EigRej= -1.00D+00 NBFU=    12     1     4     6
 Initial guess from the checkpoint file:  "h2s.chk"
 B after Tr=     0.000000    0.000000    0.000000
         Rot=    1.000000    0.000000    0.000000    0.000000 Ang=   0.00 deg.
 Initial guess orbital symmetries:
       Occupied  (A1) (A1) (B2) (A1) (B1) (A1) (B2) (A1) (B1)
       Virtual   (A1) (A1) (A1) (A1) (A1) (A1) (A1) (A2) (B1) (B1)
                 (B2) (B2) (B2) (B2)
 ExpMin= 1.17D-01 ExpMax= 2.19D+04 ExpMxC= 3.30D+03 IAcc=1 IRadAn=         1 AccDes= 0.00D+00
 Harris functional with IExCor=  402 and IRadAn=       1 diagonalized for initial guess.
 HarFok:  IExCor=  402 AccDes= 0.00D+00 IRadAn=         1 IDoV= 1 UseB2=F ITyADJ=14
 ICtDFT=  3500011 ScaDFX=  1.000000  1.000000  1.000000  1.000000
 FoFCou: FMM=F IPFlag=           0 FMFlag=      100000 FMFlg1=           0
         NFxFlg=           0 DoJE=T BraDBF=F KetDBF=T FulRan=T
         wScrn=  0.000000 ICntrl=     500 IOpCl=  0 I1Cent=   200000004 NGrid=           0
         NMat0=    1 NMatS0=      1 NMatT0=    0 NMatD0=    1 NMtDS0=    0 NMtDT0=    0
 Petite list used in FoFCou.
 Keep R1 ints in memory in symmetry-blocked form, NReq=906888.
 Requested convergence on RMS density matrix=1.00D-08 within  64 cycles.
 Requested convergence on MAX density matrix=1.00D-06.
 Requested convergence on             energy=1.00D-06.
 No special actions if energy rises.
 Integral accuracy reduced to 1.0D-05 until final iterations.
 Initial convergence to 1.0D-05 achieved.  Increase integral accuracy.
 SCF Done:  E(RB3LYP) =  -399.385415846     A.U. after    9 cycles
            NFock=  9  Conv=0.95D-08     -V/T= 2.0032
 QCSCF skips out because SCF is already converged.
 Calling FoFJK, ICntrl=      2127 FMM=F ISym2X=1 I1Cent= 0 IOpClX= 0 NMat=1 NMatS=1 NMatT=0.
 ***** Axes restored to original set *****
 -------------------------------------------------------------------
 Center     Atomic                   Forces (Hartrees/Bohr)
 Number     Number              X              Y              Z
 -------------------------------------------------------------------
      1       16           0.000000000    0.000000000   -0.003460595
      2        1           0.000000000   -0.001108565    0.001730297
      3        1           0.000000000    0.001108565    0.001730297
 -------------------------------------------------------------------
 Cartesian Forces:  Max     0.003460595 RMS     0.001506335

 GradGradGradGradGradGradGradGradGradGradGradGradGradGradGradGradGradGrad
 Berny optimization.
 Using GEDIIS/GDIIS optimizer.
 FormGI is forming the generalized inverse of G from B-inverse, IUseBI=4.
 Internal  Forces:  Max     0.001994327 RMS     0.001783452
 Search for a local minimum.
 Step number   2 out of a maximum of   20
 All quantities printed in internal units (Hartrees-Bohrs-Radians)
 Mixed Optimization -- RFO/linear search
 Update second derivatives using D2CorX and points    1    2
 DE= -9.07D-03 DEPred=-9.56D-03 R= 9.48D-01
 TightC=F SS=  1.41D+00  RLast= 3.00D-01 DXNew= 5.0454D-01 9.0000D-01
 Trust test= 9.48D-01 RLast= 3.00D-01 DXMaxT set to 5.05D-01
 The second derivative matrix:
                          R1        R2        A1
           R1           0.28676
           R2          -0.00300   0.28676
           A1           0.00060   0.00060   0.17546
 ITU=  1  0
 Use linear search instead of GDIIS.
     Eigenvalues ---    0.17545   0.28376   0.28975
 RFO step:  Lambda=-1.38603278D-05 EMin= 1.75448829D-01
 Quartic linear search produced a step of  0.03639.
 Iteration  1 RMS(Cart)=  0.00532529 RMS(Int)=  0.00001602
 Iteration  2 RMS(Cart)=  0.00002382 RMS(Int)=  0.00000000
 Iteration  3 RMS(Cart)=  0.00000000 RMS(Int)=  0.00000000
 ClnCor:  largest displacement from symmetrization is 1.88D-15 for atom     3.
 Variable       Old X    -DE/DX   Delta X   Delta X   Delta X     New X
                                 (Linear)    (Quad)   (Total)
    R1        2.54282   0.00199   0.00245   0.00455   0.00700   2.54982
    R2        2.54282   0.00199   0.00245   0.00455   0.00700   2.54982
    A1        1.62662  -0.00126  -0.01035   0.00345  -0.00690   1.61972
         Item               Value     Threshold  Converged?
 Maximum Force            0.001994     0.000450     NO 
 RMS     Force            0.001783     0.000300     NO 
 Maximum Displacement     0.007460     0.001800     NO 
 RMS     Displacement     0.005335     0.001200     NO 
 Predicted change in Energy=-1.859162D-05
 GradGradGradGradGradGradGradGradGradGradGradGradGradGradGradGradGradGrad

                          Input orientation:                          
 ---------------------------------------------------------------------
 Center     Atomic      Atomic             Coordinates (Angstroms)
 Number     Number       Type             X           Y           Z
 ---------------------------------------------------------------------
      1         16           0        0.000000    0.000000   -0.200286
      2          1           0        0.000000   -0.977154    0.730193
      3          1           0        0.000000    0.977154    0.730193
 ---------------------------------------------------------------------
                    Distance matrix (angstroms):
                    1          2          3
     1  S    0.000000
     2  H    1.349304   0.000000
     3  H    1.349304   1.954308   0.000000
 Stoichiometry    H2S
 Framework group  C2V[C2(S),SGV(H2)]
 Deg. of freedom     2
 Full point group                 C2V     NOp   4
 Largest Abelian subgroup         C2V     NOp   4
 Largest concise Abelian subgroup C2      NOp   2
                         Standard orientation:                         
 ---------------------------------------------------------------------
 Center     Atomic      Atomic             Coordinates (Angstroms)
 Number     Number       Type             X           Y           Z
 ---------------------------------------------------------------------
      1         16           0        0.000000    0.000000    0.103387
      2          1           0        0.000000    0.977154   -0.827093
      3          1           0        0.000000   -0.977154   -0.827093
 ---------------------------------------------------------------------
 Rotational constants (GHZ):    307.8502742    262.5887949    141.7119494
 Basis read from rwf:  (6D, 7F)
 There are    12 symmetry adapted cartesian basis functions of A1  symmetry.
 There are     1 symmetry adapted cartesian basis functions of A2  symmetry.
 There are     4 symmetry adapted cartesian basis functions of B1  symmetry.
 There are     6 symmetry adapted cartesian basis functions of B2  symmetry.
 There are    12 symmetry adapted basis functions of A1  symmetry.
 There are     1 symmetry adapted basis functions of A2  symmetry.
 There are     4 symmetry adapted basis functions of B1  symmetry.
 There are     6 symmetry adapted basis functions of B2  symmetry.
    23 basis functions,    60 primitive gaussians,    23 cartesian basis functions
     9 alpha electrons        9 beta electrons
       nuclear repulsion energy        12.8207021715 Hartrees.
 NAtoms=    3 NActive=    3 NUniq=    2 SFac= 2.25D+00 NAtFMM=   60 NAOKFM=F Big=F
 Integral buffers will be    131072 words long.
 Raffenetti 2 integral format.
 Two-electron integral symmetry is turned on.
 One-electron integrals computed using PRISM.
 NBasis=    23 RedAO= T EigKep=  3.03D-02  NBF=    12     1     4     6
 NBsUse=    23 1.00D-06 EigRej= -1.00D+00 NBFU=    12     1     4     6
 Initial guess from the checkpoint file:  "h2s.chk"
 B after Tr=     0.000000    0.000000    0.000000
         Rot=    1.000000    0.000000    0.000000    0.000000 Ang=   0.00 deg.
 Initial guess orbital symmetries:
       Occupied  (A1) (A1) (B2) (A1) (B1) (A1) (B2) (A1) (B1)
       Virtual   (A1) (A1) (A1) (A1) (A1) (A1) (A1) (A2) (B1) (B1)
                 (B2) (B2) (B2) (B2)
 Keep R1 ints in memory in symmetry-blocked form, NReq=906888.
 Requested convergence on RMS density matrix=1.00D-08 within  64 cycles.
 Requested convergence on MAX density matrix=1.00D-06.
 Requested convergence on             energy=1.00D-06.
 No special actions if energy rises.
 SCF Done:  E(RB3LYP) =  -399.385435412     A.U. after    7 cycles
            NFock=  7  Conv=0.18D-08     -V/T= 2.0032
 QCSCF skips out because SCF is already converged.
 Calling FoFJK, ICntrl=      2127 FMM=F ISym2X=1 I1Cent= 0 IOpClX= 0 NMat=1 NMatS=1 NMatT=0.
 ***** Axes restored to original set *****
 -------------------------------------------------------------------
 Center     Atomic                   Forces (Hartrees/Bohr)
 Number     Number              X              Y              Z
 -------------------------------------------------------------------
      1       16           0.000000000    0.000000000   -0.000249750
      2        1           0.000000000   -0.000086195    0.000124875
      3        1           0.000000000    0.000086195    0.000124875
 -------------------------------------------------------------------
 Cartesian Forces:  Max     0.000249750 RMS     0.000109758

 GradGradGradGradGradGradGradGradGradGradGradGradGradGradGradGradGradGrad
 Berny optimization.
 Using GEDIIS/GDIIS optimizer.
 FormGI is forming the generalized inverse of G from B-inverse, IUseBI=4.
 Internal  Forces:  Max     0.000148536 RMS     0.000129577
 Search for a local minimum.
 Step number   3 out of a maximum of   20
 All quantities printed in internal units (Hartrees-Bohrs-Radians)
 Mixed Optimization -- En-DIIS/RFO-DIIS
 Update second derivatives using D2CorX and points    1    2    3
 DE= -1.96D-05 DEPred=-1.86D-05 R= 1.05D+00
 TightC=F SS=  1.41D+00  RLast= 1.21D-02 DXNew= 8.4853D-01 3.6189D-02
 Trust test= 1.05D+00 RLast= 1.21D-02 DXMaxT set to 5.05D-01
 The second derivative matrix:
                          R1        R2        A1
           R1           0.27815
           R2          -0.01161   0.27815
           A1           0.00271   0.00271   0.17656
 ITU=  1  1  0
 Use linear search instead of GDIIS.
     Eigenvalues ---    0.17639   0.26670   0.28975
 RFO step:  Lambda= 0.00000000D+00 EMin= 1.76394450D-01
 Quartic linear search produced a step of  0.07790.
 Iteration  1 RMS(Cart)=  0.00038912 RMS(Int)=  0.00000008
 Iteration  2 RMS(Cart)=  0.00000012 RMS(Int)=  0.00000000
 ClnCor:  largest displacement from symmetrization is 3.45D-15 for atom     3.
 Variable       Old X    -DE/DX   Delta X   Delta X   Delta X     New X
                                 (Linear)    (Quad)   (Total)
    R1        2.54982   0.00015   0.00054   0.00002   0.00057   2.55038
    R2        2.54982   0.00015   0.00054   0.00002   0.00057   2.55038
    A1        1.61972  -0.00008  -0.00054   0.00007  -0.00047   1.61925
         Item               Value     Threshold  Converged?
 Maximum Force            0.000149     0.000450     YES
 RMS     Force            0.000130     0.000300     YES
 Maximum Displacement     0.000550     0.001800     YES
 RMS     Displacement     0.000389     0.001200     YES
 Predicted change in Energy=-1.018348D-07
 Optimization completed.
    -- Stationary point found.
                           ----------------------------
                           !   Optimized Parameters   !
                           ! (Angstroms and Degrees)  !
 --------------------------                            --------------------------
 ! Name  Definition              Value          Derivative Info.                !
 --------------------------------------------------------------------------------
 ! R1    R(1,2)                  1.3493         -DE/DX =    0.0001              !
 ! R2    R(1,3)                  1.3493         -DE/DX =    0.0001              !
 ! A1    A(2,1,3)               92.8032         -DE/DX =   -0.0001              !
 --------------------------------------------------------------------------------
 GradGradGradGradGradGradGradGradGradGradGradGradGradGradGradGradGradGrad

                          Input orientation:                          
 ---------------------------------------------------------------------
 Center     Atomic      Atomic             Coordinates (Angstroms)
 Number     Number       Type             X           Y           Z
 ---------------------------------------------------------------------
      1         16           0        0.000000    0.000000   -0.200286
      2          1           0        0.000000   -0.977154    0.730193
      3          1           0        0.000000    0.977154    0.730193
 ---------------------------------------------------------------------
                    Distance matrix (angstroms):
                    1          2          3
     1  S    0.000000
     2  H    1.349304   0.000000
     3  H    1.349304   1.954308   0.000000
 Stoichiometry    H2S
 Framework group  C2V[C2(S),SGV(H2)]
 Deg. of freedom     2
 Full point group                 C2V     NOp   4
 Largest Abelian subgroup         C2V     NOp   4
 Largest concise Abelian subgroup C2      NOp   2
                         Standard orientation:                         
 ---------------------------------------------------------------------
 Center     Atomic      Atomic             Coordinates (Angstroms)
 Number     Number       Type             X           Y           Z
 ---------------------------------------------------------------------
      1         16           0        0.000000    0.000000    0.103387
      2          1           0        0.000000    0.977154   -0.827093
      3          1           0        0.000000   -0.977154   -0.827093
 ---------------------------------------------------------------------
 Rotational constants (GHZ):    307.8502742    262.5887949    141.7119494

 **********************************************************************

            Population analysis using the SCF density.

 **********************************************************************

 Orbital symmetries:
       Occupied  (A1) (A1) (B2) (A1) (B1) (A1) (B2) (A1) (B1)
       Virtual   (B2) (A1) (B2) (A1) (A1) (B1) (B2) (A1) (A1) (A2)
                 (B1) (A1) (B2) (A1)
 The electronic state is 1-A1.
 Alpha  occ. eigenvalues --  -88.88453  -7.95022  -5.91490  -5.91166  -5.90421
 Alpha  occ. eigenvalues --   -0.74836  -0.45235  -0.36806  -0.26153
 Alpha virt. eigenvalues --    0.01971   0.05565   0.31499   0.33026   0.34527
 Alpha virt. eigenvalues --    0.36483   0.67502   0.73385   0.75415   0.75970
 Alpha virt. eigenvalues --    0.76683   1.01648   1.19057   3.86887
          Condensed to atoms (all electrons):
               1          2          3
     1  S   15.692364   0.271408   0.271408
     2  H    0.271408   0.628028  -0.017027
     3  H    0.271408  -0.017027   0.628028
 Mulliken charges:
               1
     1  S   -0.235181
     2  H    0.117591
     3  H    0.117591
 Sum of Mulliken charges =   0.00000
 Mulliken charges with hydrogens summed into heavy atoms:
               1
     1  S    0.000000
 Electronic spatial extent (au):  <R**2>=             43.7765
 Charge=              0.0000 electrons
 Dipole moment (field-independent basis, Debye):
    X=              0.0000    Y=              0.0000    Z=             -1.4271  Tot=              1.4271
 Quadrupole moment (field-independent basis, Debye-Ang):
   XX=            -16.5820   YY=            -12.1885   ZZ=            -13.5448
   XY=              0.0000   XZ=              0.0000   YZ=              0.0000
 Traceless Quadrupole moment (field-independent basis, Debye-Ang):
   XX=             -2.4769   YY=              1.9166   ZZ=              0.5603
   XY=              0.0000   XZ=              0.0000   YZ=              0.0000
 Octapole moment (field-independent basis, Debye-Ang**2):
  XXX=              0.0000  YYY=              0.0000  ZZZ=             -1.6098  XYY=              0.0000
  XXY=              0.0000  XXZ=             -0.6123  XZZ=              0.0000  YZZ=              0.0000
  YYZ=             -0.9977  XYZ=              0.0000
 Hexadecapole moment (field-independent basis, Debye-Ang**3):
 XXXX=            -23.0719 YYYY=            -22.0636 ZZZZ=            -23.8251 XXXY=              0.0000
 XXXZ=              0.0000 YYYX=              0.0000 YYYZ=              0.0000 ZZZX=              0.0000
 ZZZY=              0.0000 XXYY=             -7.7931 XXZZ=             -8.0080 YYZZ=             -6.8613
 XXYZ=              0.0000 YYXZ=              0.0000 ZZXY=              0.0000
 N-N= 1.282070217148D+01 E-N=-9.746075872898D+02  KE= 3.981197261918D+02
 Symmetry A1   KE= 3.218261229771D+02
 Symmetry A2   KE= 1.694257542381D-34
 Symmetry B1   KE= 3.855186886950D+01
 Symmetry B2   KE= 3.774173434522D+01
 1\1\GINC-GAMBA\FOpt\RB3LYP\Gen\H2S1\IRIKURA\17-May-2017\0\\# B3LYP/GEN
  gfinput OPT FREQ scf=xqc 6D\\BEB step 1: geom and freqs for h2s\\0,1\
 S,0.,0.,-0.2002863446\H,0.,-0.9771538186,0.7301933373\H,0.,0.977153818
 6,0.7301933373\\Version=ES64L-G09RevD.01\State=1-A1\HF=-399.3854354\RM
 SD=1.839e-09\RMSF=1.098e-04\Dipole=0.,0.,0.561449\Quadrupole=-1.841504
 2,1.4249326,0.4165716,0.,0.,0.\PG=C02V [C2(S1),SGV(H2)]\\@


     "IF I COULD JUST GET IT ON PAPER"
 LIFE AND INK, THEY RUN OUT AT THE SAME TIME,
 OR SO SAID MY OLD FRIEND THE SQUID.
     -- JIMMY BUFFETT, 1981
 Job cpu time:       0 days  0 hours  0 minutes 41.1 seconds.
 File lengths (MBytes):  RWF=      5 Int=      0 D2E=      0 Chk=      1 Scr=      1
 Normal termination of Gaussian 09 at Wed May 17 13:39:56 2017.
 Link1:  Proceeding to internal job step number  2.
 ------------------------------------------------------------------
 #N Geom=AllCheck Guess=TCheck SCRF=Check GenChk RB3LYP/ChkBas Freq
 ------------------------------------------------------------------
 1/10=4,29=7,30=1,38=1,40=1/1,3;
 2/12=2,40=1/2;
 3/5=7,6=2,8=2,11=2,14=-4,16=1,24=10,25=1,30=1,67=1,70=2,71=2,74=-5,82=7,116=1,140=1/1,2,3;
 4/5=101/1;
 5/5=2,8=3,13=1,98=1/2,8;
 8/6=4,10=90,11=11/1;
 11/6=1,8=1,9=11,15=111,16=1/1,2,10;
 10/6=1/2;
 6/7=2,8=2,9=2,10=2,18=1,28=1/1;
 7/8=1,10=1,25=1/1,2,3,16;
 1/10=4,30=1/3;
 99//99;
 Structure from the checkpoint file:  "h2s.chk"
 ----------------------------------
 BEB step 1: geom and freqs for h2s
 ----------------------------------
 Charge =  0 Multiplicity = 1
 Redundant internal coordinates found in file.
 S,0,0.,0.,-0.2002863446
 H,0,0.,-0.9771538186,0.7301933373
 H,0,0.,0.9771538186,0.7301933373
 Recover connectivity data from disk.

 GradGradGradGradGradGradGradGradGradGradGradGradGradGradGradGradGradGrad
 Berny optimization.
 Initialization pass.
                           ----------------------------
                           !    Initial Parameters    !
                           ! (Angstroms and Degrees)  !
 --------------------------                            --------------------------
 ! Name  Definition              Value          Derivative Info.                !
 --------------------------------------------------------------------------------
 ! R1    R(1,2)                  1.3493         calculate D2E/DX2 analytically  !
 ! R2    R(1,3)                  1.3493         calculate D2E/DX2 analytically  !
 ! A1    A(2,1,3)               92.8032         calculate D2E/DX2 analytically  !
 --------------------------------------------------------------------------------
 Trust Radius=3.00D-01 FncErr=1.00D-07 GrdErr=1.00D-07
 Number of steps in this run=      2 maximum allowed number of steps=      2.
 GradGradGradGradGradGradGradGradGradGradGradGradGradGradGradGradGradGrad

                          Input orientation:                          
 ---------------------------------------------------------------------
 Center     Atomic      Atomic             Coordinates (Angstroms)
 Number     Number       Type             X           Y           Z
 ---------------------------------------------------------------------
      1         16           0        0.000000    0.000000   -0.200286
      2          1           0        0.000000   -0.977154    0.730193
      3          1           0        0.000000    0.977154    0.730193
 ---------------------------------------------------------------------
                    Distance matrix (angstroms):
                    1          2          3
     1  S    0.000000
     2  H    1.349304   0.000000
     3  H    1.349304   1.954308   0.000000
 Stoichiometry    H2S
 Framework group  C2V[C2(S),SGV(H2)]
 Deg. of freedom     2
 Full point group                 C2V     NOp   4
 Largest Abelian subgroup         C2V     NOp   4
 Largest concise Abelian subgroup C2      NOp   2
                         Standard orientation:                         
 ---------------------------------------------------------------------
 Center     Atomic      Atomic             Coordinates (Angstroms)
 Number     Number       Type             X           Y           Z
 ---------------------------------------------------------------------
      1         16           0        0.000000    0.000000    0.103387
      2          1           0        0.000000    0.977154   -0.827093
      3          1           0        0.000000   -0.977154   -0.827093
 ---------------------------------------------------------------------
 Rotational constants (GHZ):    307.8502742    262.5887949    141.7119494
 Basis read from chk: "h2s.chk" (6D, 7F)
 AO basis set in the form of general basis input (Overlap normalization):
      1 0
 S   6 1.00       0.000000000000
      0.2191710000D+05  0.1869240849D-02
      0.3301490000D+04  0.1423030646D-01
      0.7541460000D+03  0.6969623166D-01
      0.2127110000D+03  0.2384871083D+00
      0.6798960000D+02  0.4833072195D+00
      0.2305150000D+02  0.3380741536D+00
 SP   6 1.00       0.000000000000
      0.4237350000D+03 -0.2376770499D-02  0.4061009982D-02
      0.1007100000D+03 -0.3169300665D-01  0.3068129986D-01
      0.3215990000D+02 -0.1133170238D+00  0.1304519994D+00
      0.1180790000D+02  0.5609001177D-01  0.3272049985D+00
      0.4631100000D+01  0.5922551243D+00  0.4528509980D+00
      0.1870250000D+01  0.4550060955D+00  0.2560419989D+00
 SP   3 1.00       0.000000000000
      0.2615840000D+01 -0.2503731142D+00 -0.1451048955D-01
      0.9221670000D+00  0.6695676310D-01  0.3102627765D+00
      0.3412870000D+00  0.1054506269D+01  0.7544824565D+00
 SP   1 1.00       0.000000000000
      0.1171670000D+00  0.1000000000D+01  0.1000000000D+01
 D   1 1.00       0.000000000000
      0.6500000000D+00  0.1000000000D+01
 ****
      2 0
 S   3 1.00       0.000000000000
      0.1873113696D+02  0.3349460434D-01
      0.2825394365D+01  0.2347269535D+00
      0.6401216923D+00  0.8137573261D+00
 S   1 1.00       0.000000000000
      0.1612777588D+00  0.1000000000D+01
 ****
      3 0
 S   3 1.00       0.000000000000
      0.1873113696D+02  0.3349460434D-01
      0.2825394365D+01  0.2347269535D+00
      0.6401216923D+00  0.8137573261D+00
 S   1 1.00       0.000000000000
      0.1612777588D+00  0.1000000000D+01
 ****

 There are    12 symmetry adapted cartesian basis functions of A1  symmetry.
 There are     1 symmetry adapted cartesian basis functions of A2  symmetry.
 There are     4 symmetry adapted cartesian basis functions of B1  symmetry.
 There are     6 symmetry adapted cartesian basis functions of B2  symmetry.
 There are    12 symmetry adapted basis functions of A1  symmetry.
 There are     1 symmetry adapted basis functions of A2  symmetry.
 There are     4 symmetry adapted basis functions of B1  symmetry.
 There are     6 symmetry adapted basis functions of B2  symmetry.
    23 basis functions,    60 primitive gaussians,    23 cartesian basis functions
     9 alpha electrons        9 beta electrons
       nuclear repulsion energy        12.8207021715 Hartrees.
 NAtoms=    3 NActive=    3 NUniq=    2 SFac= 2.25D+00 NAtFMM=   60 NAOKFM=F Big=F
 Integral buffers will be    131072 words long.
 Raffenetti 2 integral format.
 Two-electron integral symmetry is turned on.
 One-electron integrals computed using PRISM.
 NBasis=    23 RedAO= T EigKep=  3.03D-02  NBF=    12     1     4     6
 NBsUse=    23 1.00D-06 EigRej= -1.00D+00 NBFU=    12     1     4     6
 Initial guess from the checkpoint file:  "h2s.chk"
 B after Tr=     0.000000    0.000000    0.000000
         Rot=    1.000000    0.000000    0.000000    0.000000 Ang=   0.00 deg.
 Initial guess orbital symmetries:
       Occupied  (A1) (A1) (B2) (A1) (B1) (A1) (B2) (A1) (B1)
       Virtual   (B2) (A1) (B2) (A1) (A1) (B1) (B2) (A1) (A1) (A2)
                 (B1) (A1) (B2) (A1)
 Keep R1 ints in memory in symmetry-blocked form, NReq=906888.
 Requested convergence on RMS density matrix=1.00D-08 within  64 cycles.
 Requested convergence on MAX density matrix=1.00D-06.
 Requested convergence on             energy=1.00D-06.
 No special actions if energy rises.
 Skip diagonalization as Alpha Fock matrix is already diagonal.
 SCF Done:  E(RB3LYP) =  -399.385435412     A.U. after    1 cycles
            NFock=  1  Conv=0.00D+00     -V/T= 2.0032
 QCSCF skips out because SCF is already converged.
 DoSCS=F DFT=T ScalE2(SS,OS)=  1.000000  1.000000
 Range of M.O.s used for correlation:     1    23
 NBasis=    23 NAE=     9 NBE=     9 NFC=     0 NFV=     0
 NROrb=     23 NOA=     9 NOB=     9 NVA=    14 NVB=    14
 Symmetrizing basis deriv contribution to polar:
 IMax=3 JMax=2 DiffMx= 0.00D+00
 G2DrvN: will do     4 centers at a time, making    1 passes.
 Calling FoFCou, ICntrl=  3107 FMM=F I1Cent=   0 AccDes= 0.00D+00.
 End of G2Drv F.D. properties file   721 does not exist.
 End of G2Drv F.D. properties file   722 does not exist.
 End of G2Drv F.D. properties file   788 does not exist.
          IDoAtm=111
          Differentiating once with respect to electric field.
                with respect to dipole field.
          Differentiating once with respect to nuclear coordinates.
 Keep R1 ints in memory in symmetry-blocked form, NReq=898440.
          There are     9 degrees of freedom in the 1st order CPHF.  IDoFFX=4 NUNeed=     9.
      9 vectors produced by pass  0 Test12= 1.40D-15 1.11D-08 XBig12= 1.38D+01 2.95D+00.
 AX will form     9 AO Fock derivatives at one time.
      9 vectors produced by pass  1 Test12= 1.40D-15 1.11D-08 XBig12= 9.89D-01 5.96D-01.
      9 vectors produced by pass  2 Test12= 1.40D-15 1.11D-08 XBig12= 4.62D-03 4.25D-02.
      9 vectors produced by pass  3 Test12= 1.40D-15 1.11D-08 XBig12= 7.05D-06 1.07D-03.
      8 vectors produced by pass  4 Test12= 1.40D-15 1.11D-08 XBig12= 3.25D-08 5.94D-05.
      4 vectors produced by pass  5 Test12= 1.40D-15 1.11D-08 XBig12= 8.25D-12 1.07D-06.
      1 vectors produced by pass  6 Test12= 1.40D-15 1.11D-08 XBig12= 1.95D-15 2.10D-08.
 InvSVY:  IOpt=1 It=  1 EMax= 4.44D-16
 Solved reduced A of dimension    49 with     9 vectors.
 Isotropic polarizability for W=    0.000000       14.64 Bohr**3.
 End of Minotr F.D. properties file   721 does not exist.
 End of Minotr F.D. properties file   722 does not exist.
 End of Minotr F.D. properties file   788 does not exist.

 **********************************************************************

            Population analysis using the SCF density.

 **********************************************************************

 Orbital symmetries:
       Occupied  (A1) (A1) (B2) (A1) (B1) (A1) (B2) (A1) (B1)
       Virtual   (B2) (A1) (B2) (A1) (A1) (B1) (B2) (A1) (A1) (A2)
                 (B1) (A1) (B2) (A1)
 The electronic state is 1-A1.
 Alpha  occ. eigenvalues --  -88.88453  -7.95022  -5.91490  -5.91166  -5.90421
 Alpha  occ. eigenvalues --   -0.74836  -0.45235  -0.36806  -0.26153
 Alpha virt. eigenvalues --    0.01971   0.05565   0.31499   0.33026   0.34527
 Alpha virt. eigenvalues --    0.36483   0.67502   0.73385   0.75415   0.75970
 Alpha virt. eigenvalues --    0.76683   1.01648   1.19057   3.86887
          Condensed to atoms (all electrons):
               1          2          3
     1  S   15.692364   0.271408   0.271408
     2  H    0.271408   0.628028  -0.017027
     3  H    0.271408  -0.017027   0.628028
 Mulliken charges:
               1
     1  S   -0.235181
     2  H    0.117591
     3  H    0.117591
 Sum of Mulliken charges =   0.00000
 Mulliken charges with hydrogens summed into heavy atoms:
               1
     1  S    0.000000
 APT charges:
               1
     1  S   -0.057107
     2  H    0.028554
     3  H    0.028554
 Sum of APT charges =   0.00000
 APT charges with hydrogens summed into heavy atoms:
               1
     1  S    0.000000
 Electronic spatial extent (au):  <R**2>=             43.7765
 Charge=              0.0000 electrons
 Dipole moment (field-independent basis, Debye):
    X=              0.0000    Y=              0.0000    Z=             -1.4271  Tot=              1.4271
 Quadrupole moment (field-independent basis, Debye-Ang):
   XX=            -16.5820   YY=            -12.1885   ZZ=            -13.5448
   XY=              0.0000   XZ=              0.0000   YZ=              0.0000
 Traceless Quadrupole moment (field-independent basis, Debye-Ang):
   XX=             -2.4769   YY=              1.9166   ZZ=              0.5603
   XY=              0.0000   XZ=              0.0000   YZ=              0.0000
 Octapole moment (field-independent basis, Debye-Ang**2):
  XXX=              0.0000  YYY=              0.0000  ZZZ=             -1.6098  XYY=              0.0000
  XXY=              0.0000  XXZ=             -0.6123  XZZ=              0.0000  YZZ=              0.0000
  YYZ=             -0.9977  XYZ=              0.0000
 Hexadecapole moment (field-independent basis, Debye-Ang**3):
 XXXX=            -23.0719 YYYY=            -22.0636 ZZZZ=            -23.8251 XXXY=              0.0000
 XXXZ=              0.0000 YYYX=              0.0000 YYYZ=              0.0000 ZZZX=              0.0000
 ZZZY=              0.0000 XXYY=             -7.7931 XXZZ=             -8.0080 YYZZ=             -6.8613
 XXYZ=              0.0000 YYXZ=              0.0000 ZZXY=              0.0000
 N-N= 1.282070217148D+01 E-N=-9.746075872898D+02  KE= 3.981197261918D+02
 Symmetry A1   KE= 3.218261229771D+02
 Symmetry A2   KE= 1.694257542380D-34
 Symmetry B1   KE= 3.855186886950D+01
 Symmetry B2   KE= 3.774173434522D+01
  Exact polarizability:  10.960   0.000  17.445   0.000   0.000  15.517
 Approx polarizability:  13.506   0.000  25.258   0.000   0.000  21.290
 Calling FoFJK, ICntrl=    100127 FMM=F ISym2X=1 I1Cent= 0 IOpClX= 0 NMat=1 NMatS=1 NMatT=0.
 Full mass-weighted force constant matrix:
 Low frequencies ---  -57.3211  -27.0482  -12.2487    0.0041    0.0050    0.0066
 Low frequencies --- 1249.3700 2696.8688 2717.3992
 Diagonal vibrational polarizability:
        0.0000000       0.0525551       0.1259987
 Harmonic frequencies (cm**-1), IR intensities (KM/Mole), Raman scattering
 activities (A**4/AMU), depolarization ratios for plane and unpolarized
 incident light, reduced masses (AMU), force constants (mDyne/A),
 and normal coordinates:
                      1                      2                      3
                     A1                     A1                     B2
 Frequencies --   1249.3700              2696.8688              2717.3989
 Red. masses --      1.0396                 1.0356                 1.0401
 Frc consts  --      0.9561                 4.4379                 4.5250
 IR Inten    --      4.9204                11.1261                14.4208
  Atom  AN      X      Y      Z        X      Y      Z        X      Y      Z
     1  16     0.00   0.00   0.03     0.00   0.00   0.03     0.00   0.03   0.00
     2   1     0.00  -0.49  -0.51     0.00   0.52  -0.48     0.00  -0.51   0.49
     3   1     0.00   0.49  -0.51     0.00  -0.52  -0.48     0.00  -0.51  -0.49

 -------------------
 - Thermochemistry -
 -------------------
 Temperature   298.150 Kelvin.  Pressure   1.00000 Atm.
 Atom     1 has atomic number 16 and mass  31.97207
 Atom     2 has atomic number  1 and mass   1.00783
 Atom     3 has atomic number  1 and mass   1.00783
 Molecular mass:    33.98772 amu.
 Principal axes and moments of inertia in atomic units:
                           1         2         3
     Eigenvalues --     5.86240   6.87288  12.73528
           X            0.00000   0.00000   1.00000
           Y            1.00000   0.00000   0.00000
           Z            0.00000   1.00000   0.00000
 This molecule is an asymmetric top.
 Rotational symmetry number  2.
 Rotational temperatures (Kelvin)     14.77447    12.60226     6.80109
 Rotational constants (GHZ):         307.85027   262.58879   141.71195
 Zero-point vibrational energy      39857.4 (Joules/Mol)
                                    9.52615 (Kcal/Mol)
 Vibrational temperatures:   1797.56  3880.19  3909.73
          (Kelvin)
 
 Zero-point correction=                           0.015181 (Hartree/Particle)
 Thermal correction to Energy=                    0.018027
 Thermal correction to Enthalpy=                  0.018971
 Thermal correction to Gibbs Free Energy=        -0.004387
 Sum of electronic and zero-point Energies=           -399.370255
 Sum of electronic and thermal Energies=              -399.367408
 Sum of electronic and thermal Enthalpies=            -399.366464
 Sum of electronic and thermal Free Energies=         -399.389822
 
                     E (Thermal)             CV                S
                      KCal/Mol        Cal/Mol-Kelvin    Cal/Mol-Kelvin
 Total                   11.312              6.138             49.161
 Electronic               0.000              0.000              0.000
 Translational            0.889              2.981             36.501
 Rotational               0.889              2.981             12.626
 Vibrational              9.535              0.176              0.034
                       Q            Log10(Q)             Ln(Q)
 Total Bot       0.104162D+03          2.017708          4.645944
 Total V=0       0.100096D+10          9.000415         20.724221
 Vib (Bot)       0.104314D-06         -6.981658        -16.075862
 Vib (V=0)       0.100242D+01          0.001049          0.002415
 Electronic      0.100000D+01          0.000000          0.000000
 Translational   0.778822D+07          6.891438         15.868123
 Rotational      0.128212D+03          2.107928          4.853683
 ***** Axes restored to original set *****
 -------------------------------------------------------------------
 Center     Atomic                   Forces (Hartrees/Bohr)
 Number     Number              X              Y              Z
 -------------------------------------------------------------------
      1       16           0.000000000    0.000000000   -0.000249750
      2        1           0.000000000   -0.000086195    0.000124875
      3        1           0.000000000    0.000086195    0.000124875
 -------------------------------------------------------------------
 Cartesian Forces:  Max     0.000249750 RMS     0.000109758
 FormGI is forming the generalized inverse of G from B-inverse, IUseBI=4.

 GradGradGradGradGradGradGradGradGradGradGradGradGradGradGradGradGradGrad
 Berny optimization.
 Internal  Forces:  Max     0.000148536 RMS     0.000129577
 Search for a local minimum.
 Step number   1 out of a maximum of    2
 All quantities printed in internal units (Hartrees-Bohrs-Radians)
 Second derivative matrix not updated -- analytic derivatives used.
 The second derivative matrix:
                          R1        R2        A1
           R1           0.27104
           R2          -0.00148   0.27104
           A1           0.00849   0.00849   0.18807
 ITU=  0
     Eigenvalues ---    0.18633   0.27129   0.27251
 Angle between quadratic step and forces=   9.88 degrees.
 Linear search not attempted -- first point.
 Iteration  1 RMS(Cart)=  0.00038909 RMS(Int)=  0.00000008
 Iteration  2 RMS(Cart)=  0.00000012 RMS(Int)=  0.00000000
 ClnCor:  largest displacement from symmetrization is 1.26D-14 for atom     3.
 Variable       Old X    -DE/DX   Delta X   Delta X   Delta X     New X
                                 (Linear)    (Quad)   (Total)
    R1        2.54982   0.00015   0.00000   0.00057   0.00057   2.55038
    R2        2.54982   0.00015   0.00000   0.00057   0.00057   2.55038
    A1        1.61972  -0.00008   0.00000  -0.00047  -0.00047   1.61925
         Item               Value     Threshold  Converged?
 Maximum Force            0.000149     0.000450     YES
 RMS     Force            0.000130     0.000300     YES
 Maximum Displacement     0.000550     0.001800     YES
 RMS     Displacement     0.000389     0.001200     YES
 Predicted change in Energy=-1.026764D-07
 Optimization completed.
    -- Stationary point found.
                           ----------------------------
                           !   Optimized Parameters   !
                           ! (Angstroms and Degrees)  !
 --------------------------                            --------------------------
 ! Name  Definition              Value          Derivative Info.                !
 --------------------------------------------------------------------------------
 ! R1    R(1,2)                  1.3493         -DE/DX =    0.0001              !
 ! R2    R(1,3)                  1.3493         -DE/DX =    0.0001              !
 ! A1    A(2,1,3)               92.8032         -DE/DX =   -0.0001              !
 --------------------------------------------------------------------------------
 GradGradGradGradGradGradGradGradGradGradGradGradGradGradGradGradGradGrad

 1\1\GINC-GAMBA\Freq\RB3LYP\Gen\H2S1\IRIKURA\17-May-2017\0\\#N Geom=All
 Check Guess=TCheck SCRF=Check GenChk RB3LYP/ChkBas Freq\\BEB step 1: g
 eom and freqs for h2s\\0,1\S,0.,0.,-0.2002863446\H,0.,-0.9771538186,0.
 7301933373\H,0.,0.9771538186,0.7301933373\\Version=ES64L-G09RevD.01\St
 ate=1-A1\HF=-399.3854354\RMSD=0.000e+00\RMSF=1.098e-04\ZeroPoint=0.015
 1809\Thermal=0.0180272\Dipole=0.,0.,0.561449\DipoleDeriv=-0.3193257,0.
 ,0.,0.,-0.023973,0.,0.,0.,0.1719776,0.1596628,0.,0.,0.,0.0119865,0.020
 8373,0.,0.1406328,-0.0859888,0.1596628,0.,0.,0.,0.0119865,-0.0208373,0
 .,-0.1406328,-0.0859888\Polar=10.9601902,0.,17.4445676,0.,0.,15.516839
 4\PG=C02V [C2(S1),SGV(H2)]\NImag=0\\-0.00001077,0.,0.28561548,0.,0.,0.
 30371583,0.00000538,0.,0.,-0.00001664,0.,-0.14280774,0.10543039,0.,0.1
 5915134,0.,0.13621635,-0.15185792,0.,-0.12082337,0.14077731,0.00000538
 ,0.,0.,0.00001126,0.,0.,-0.00001664,0.,-0.14280774,-0.10543039,0.,-0.0
 1634360,-0.01539298,0.,0.15915134,0.,-0.13621635,-0.15185792,0.,0.0153
 9298,0.01108060,0.,0.12082337,0.14077731\\0.,0.,0.00024975,0.,0.000086
 20,-0.00012488,0.,-0.00008620,-0.00012488\\\@


 VIRTUE IS LEARNED AT YOUR MOTHER'S KNEE,
 VICES ARE PICKED UP AT SOME OTHER JOINT.
 Job cpu time:       0 days  0 hours  0 minutes 24.5 seconds.
 File lengths (MBytes):  RWF=      5 Int=      0 D2E=      0 Chk=      1 Scr=      1
 Normal termination of Gaussian 09 at Wed May 17 13:40:04 2017.
