 Entering Gaussian System, Link 0=g09
 AtFile(1): t_plusd.gbs
            -Al     0
            S   13   1.00
             205500.0000000              0.678836D-04
              30780.0000000              0.527149D-03
               7006.0000000              0.276203D-02
               1985.0000000              0.114728D-01
                649.1000000              0.398188D-01
                235.0000000              0.115040D+00
                 91.6200000              0.260887D+00
                 37.6700000              0.396386D+00
                 15.9100000              0.284597D+00
                  5.8500000              0.444583D-01
                  2.5420000             -0.489838D-02
                  1.0570000              0.261253D-02
                  0.1455000              0.722068D-03
            S   13   1.00
             205500.0000000             -0.176377D-04
              30780.0000000             -0.137195D-03
               7006.0000000             -0.718910D-03
               1985.0000000             -0.301146D-02
                649.1000000             -0.106014D-01
                235.0000000             -0.321345D-01
                 91.6200000             -0.803156D-01
                 37.6700000             -0.156794D+00
                 15.9100000             -0.168376D+00
                  5.8500000              0.126879D+00
                  2.5420000              0.561494D+00
                  1.0570000              0.436613D+00
                  0.1455000             -0.114563D-01
            S   13   1.00
             205500.0000000              0.407315D-05
              30780.0000000              0.316566D-04
               7006.0000000              0.166116D-03
               1985.0000000              0.694992D-03
                649.1000000              0.245511D-02
                235.0000000              0.744598D-02
                 91.6200000              0.188253D-01
                 37.6700000              0.372772D-01
                 15.9100000              0.419496D-01
                  5.8500000             -0.354375D-01
                  2.5420000             -0.175132D+00
                  1.0570000             -0.276203D+00
                  0.1455000              0.652809D+00
            S   1   1.00
                  0.2931000              1.0000000
            S   1   1.00
                  0.0565000              1.0000000
            P   7   1.00
                444.4000000              0.162786D-02
                105.1000000              0.130687D-01
                 33.4700000              0.612341D-01
                 12.3300000              0.187870D+00
                  4.8690000              0.360452D+00
                  1.9610000              0.408454D+00
                  0.1888000              0.976514D-02
            P   7   1.00
                444.4000000             -0.286341D-03
                105.1000000             -0.242308D-02
                 33.4700000             -0.108658D-01
                 12.3300000             -0.364307D-01
                  4.8690000             -0.641074D-01
                  1.9610000             -0.972239D-01
                  0.1888000              0.503448D+00
            P   1   1.00
                  0.7834000              1.0000000
            P   1   1.00
                  0.0555700              1.0000000
            D   1   1.00
                  1.5700000              1.0000000
            D   1   1.00
                  0.3330000              1.0000000
            D   1   1.00
                  0.1110000              1.0000000
            F   1   1.00
                  0.2440000              1.0000000
            ****
            -Si     0
            S   13   1.00
             254900.0000000              0.625101D-04
              38190.0000000              0.485553D-03
               8690.0000000              0.254516D-02
               2462.0000000              0.105866D-01
                804.8000000              0.368787D-01
                291.3000000              0.107479D+00
                113.6000000              0.247936D+00
                 46.7500000              0.390927D+00
                 19.8200000              0.302026D+00
                  7.7080000              0.559236D-01
                  3.3400000             -0.402406D-02
                  1.4020000              0.258030D-02
                  0.2070000              0.607930D-03
            S   13   1.00
             254900.0000000             -0.166370D-04
              38190.0000000             -0.129310D-03
               8690.0000000             -0.678828D-03
               2462.0000000             -0.284117D-02
                804.8000000             -0.100551D-01
                291.3000000             -0.305774D-01
                113.6000000             -0.777256D-01
                 46.7500000             -0.154236D+00
                 19.8200000             -0.180368D+00
                  7.7080000              0.798218D-01
                  3.3400000              0.547441D+00
                  1.4020000              0.480119D+00
                  0.2070000             -0.106996D-01
            S   13   1.00
             254900.0000000              0.426257D-05
              38190.0000000              0.331062D-04
               8690.0000000              0.174015D-03
               2462.0000000              0.727574D-03
                804.8000000              0.258333D-02
                291.3000000              0.786354D-02
                113.6000000              0.202155D-01
                 46.7500000              0.407320D-01
                 19.8200000              0.499358D-01
                  7.7080000             -0.249396D-01
                  3.3400000             -0.190350D+00
                  1.4020000             -0.318350D+00
                  0.2070000              0.681180D+00
            S   1   1.00
                  0.4387000              1.0000000
            S   1   1.00
                  0.0794400              1.0000000
            P   7   1.00
                481.5000000              0.192045D-02
                113.9000000              0.153552D-01
                 36.2300000              0.713991D-01
                 13.3400000              0.213052D+00
                  5.2520000              0.390354D+00
                  2.1200000              0.393721D+00
                  0.2528000              0.395630D-02
            P   7   1.00
                481.5000000             -0.405220D-03
                113.9000000             -0.335896D-02
                 36.2300000             -0.152860D-01
                 13.3400000             -0.489218D-01
                  5.2520000             -0.855008D-01
                  2.1200000             -0.112137D+00
                  0.2528000              0.551919D+00
            P   1   1.00
                  0.8561000              1.0000000
            P   1   1.00
                  0.0788900              1.0000000
            D   1   1.00
                  2.3030000              1.0000000
            D   1   1.00
                  0.4760000              1.0000000
            D   1   1.00
                  0.1600000              1.0000000
            F   1   1.00
                  0.3360000              1.0000000
            ****
            -P     0
            S   13   1.00
             312400.0000000              0.576960D-04
              46800.0000000              0.448296D-03
              10650.0000000              0.234939D-02
               3018.0000000              0.978265D-02
                986.8000000              0.341467D-01
                357.4000000              0.100204D+00
                139.6000000              0.234372D+00
                 57.6300000              0.382434D+00
                 24.6000000              0.318088D+00
                 10.1200000              0.707788D-01
                  4.2830000             -0.181799D-02
                  1.8050000              0.216180D-02
                  0.2782000              0.432297D-03
            S   13   1.00
             312400.0000000             -0.156709D-04
              46800.0000000             -0.121724D-03
              10650.0000000             -0.639672D-03
               3018.0000000             -0.267426D-02
                986.8000000             -0.949831D-02
                357.4000000             -0.289349D-01
                139.6000000             -0.745121D-01
                 57.6300000             -0.149938D+00
                 24.6000000             -0.189467D+00
                 10.1200000              0.363270D-01
                  4.2830000              0.528816D+00
                  1.8050000              0.519115D+00
                  0.2782000             -0.925695D-02
            S   13   1.00
             312400.0000000              0.430631D-05
              46800.0000000              0.334194D-04
              10650.0000000              0.175885D-03
               3018.0000000              0.734340D-03
                986.8000000              0.261775D-02
                357.4000000              0.797852D-02
                139.6000000              0.207940D-01
                 57.6300000              0.424446D-01
                 24.6000000              0.563436D-01
                 10.1200000             -0.127358D-01
                  4.2830000             -0.196495D+00
                  1.8050000             -0.353555D+00
                  0.2782000              0.700912D+00
            S   1   1.00
                  0.6158000              1.0000000
            S   1   1.00
                  0.1055000              1.0000000
            P   7   1.00
                504.9000000              0.233728D-02
                119.4000000              0.185410D-01
                 37.9600000              0.849693D-01
                 13.9500000              0.244615D+00
                  5.4570000              0.422766D+00
                  2.1770000              0.368439D+00
                  0.2877000             -0.379005D-02
            P   7   1.00
                504.9000000             -0.555236D-03
                119.4000000             -0.445913D-02
                 37.9600000             -0.206350D-01
                 13.9500000             -0.617694D-01
                  5.4570000             -0.108924D+00
                  2.1770000             -0.105599D+00
                  0.2877000              0.576981D+00
            P   1   1.00
                  0.8010000              1.0000000
            P   1   1.00
                  0.0971400              1.0000000
            D   1   1.00
                  3.1200000              1.0000000
            D   1   1.00
                  0.6480000              1.0000000
            D   1   1.00
                  0.2180000              1.0000000
            F   1   1.00
                  0.4520000              1.0000000
            ****
            -S     0
            S   13   1.00
             374100.0000000              0.542140D-04
              56050.0000000              0.420855D-03
              12760.0000000              0.220698D-02
               3615.0000000              0.919258D-02
               1183.0000000              0.321123D-01
                428.8000000              0.946683D-01
                167.8000000              0.223630D+00
                 69.4700000              0.374393D+00
                 29.8400000              0.329108D+00
                 12.7200000              0.847038D-01
                  5.2440000              0.440851D-03
                  2.2190000              0.164827D-02
                  0.3490000              0.301306D-03
            S   13   1.00
             374100.0000000             -0.149837D-04
              56050.0000000             -0.116198D-03
              12760.0000000             -0.611583D-03
               3615.0000000             -0.255370D-02
               1183.0000000             -0.908708D-02
                428.8000000             -0.277045D-01
                167.8000000             -0.720020D-01
                 69.4700000             -0.146439D+00
                 29.8400000             -0.195150D+00
                 12.7200000              0.819193D-02
                  5.2440000              0.516601D+00
                  2.2190000              0.542178D+00
                  0.3490000             -0.918072D-02
            S   13   1.00
             374100.0000000              0.435066D-05
              56050.0000000              0.337140D-04
              12760.0000000              0.177674D-03
               3615.0000000              0.741116D-03
               1183.0000000              0.264591D-02
                428.8000000              0.807487D-02
                167.8000000              0.212276D-01
                 69.4700000              0.438323D-01
                 29.8400000              0.612716D-01
                 12.7200000             -0.361510D-02
                  5.2440000             -0.204510D+00
                  2.2190000             -0.381871D+00
                  0.3490000              0.714147D+00
            S   1   1.00
                  0.7767000              1.0000000
            S   1   1.00
                  0.1322000              1.0000000
            P   7   1.00
                574.4000000              0.242264D-02
                135.8000000              0.192796D-01
                 43.1900000              0.885401D-01
                 15.8700000              0.254654D+00
                  6.2080000              0.433984D+00
                  2.4830000              0.354953D+00
                  0.3229000             -0.502977D-02
            P   7   1.00
                574.4000000             -0.620102D-03
                135.8000000             -0.493882D-02
                 43.1900000             -0.232647D-01
                 15.8700000             -0.685195D-01
                  6.2080000             -0.123896D+00
                  2.4830000             -0.969499D-01
                  0.3229000              0.569394D+00
            P   1   1.00
                  0.8688000              1.0000000
            P   1   1.00
                  0.1098000              1.0000000
            D   1   1.00
                  3.7560000              1.0000000
            D   1   1.00
                  0.8120000              1.0000000
            D   1   1.00
                  0.2730000              1.0000000
            F   1   1.00
                  0.5570000              1.0000000
            ****
            -Cl     0
            S   13   1.00
             456100.0000000              0.492970D-04
              68330.0000000              0.383029D-03
              15550.0000000              0.200854D-02
               4405.0000000              0.838558D-02
               1439.0000000              0.294703D-01
                520.4000000              0.878325D-01
                203.1000000              0.211473D+00
                 83.9600000              0.365364D+00
                 36.2000000              0.340884D+00
                 15.8300000              0.102133D+00
                  6.3340000              0.311675D-02
                  2.6940000              0.105751D-02
                  0.4313000              0.156136D-03
            S   13   1.00
             456100.0000000             -0.138304D-04
              68330.0000000             -0.107279D-03
              15550.0000000             -0.565083D-03
               4405.0000000             -0.236135D-02
               1439.0000000             -0.845886D-02
                520.4000000             -0.259638D-01
                203.1000000             -0.686362D-01
                 83.9600000             -0.141874D+00
                 36.2000000             -0.199319D+00
                 15.8300000             -0.195662D-01
                  6.3340000              0.499741D+00
                  2.6940000              0.563736D+00
                  0.4313000             -0.835091D-02
            S   13   1.00
             456100.0000000              0.418546D-05
              68330.0000000              0.324395D-04
              15550.0000000              0.171105D-03
               4405.0000000              0.714176D-03
               1439.0000000              0.256705D-02
                520.4000000              0.788552D-02
                203.1000000              0.210867D-01
                 83.9600000              0.442264D-01
                 36.2000000              0.651670D-01
                 15.8300000              0.603012D-02
                  6.3340000             -0.206495D+00
                  2.6940000             -0.405871D+00
                  0.4313000              0.725661D+00
            S   1   1.00
                  0.9768000              1.0000000
            S   1   1.00
                  0.1625000              1.0000000
            P   7   1.00
                663.3000000              0.240448D-02
                156.8000000              0.192148D-01
                 49.9800000              0.885097D-01
                 18.4200000              0.256020D+00
                  7.2400000              0.436927D+00
                  2.9220000              0.350334D+00
                  0.3818000             -0.458423D-02
            P   7   1.00
                663.3000000             -0.652145D-03
                156.8000000             -0.519445D-02
                 49.9800000             -0.246938D-01
                 18.4200000             -0.728167D-01
                  7.2400000             -0.134030D+00
                  2.9220000             -0.947742D-01
                  0.3818000              0.564667D+00
            P   1   1.00
                  1.0220000              1.0000000
            P   1   1.00
                  0.1301000              1.0000000
            D   1   1.00
                  4.6100000              1.0000000
            D   1   1.00
                  1.0110000              1.0000000
            D   1   1.00
                  0.3390000              1.0000000
            F   1   1.00
                  0.7060000              1.0000000
            ****
            -Ar     0
            S   13   1.00
             545000.0000000              0.455828D-04
              81640.0000000              0.354108D-03
              18580.0000000              0.185797D-02
               5261.0000000              0.776851D-02
               1717.0000000              0.274232D-01
                619.9000000              0.823836D-01
                241.6000000              0.201230D+00
                 99.7900000              0.356781D+00
                 43.1500000              0.349563D+00
                 19.1400000              0.118266D+00
                  7.4880000              0.560190D-02
                  3.2050000              0.483473D-03
                  0.5204000              0.292025D-04
            S   13   1.00
             545000.0000000             -0.129551D-04
              81640.0000000             -0.100428D-03
              18580.0000000             -0.529583D-03
               5261.0000000             -0.221396D-02
               1717.0000000             -0.796845D-02
                619.9000000             -0.245803D-01
                241.6000000             -0.657798D-01
                 99.7900000             -0.137942D+00
                 43.1500000             -0.201630D+00
                 19.1400000             -0.412834D-01
                  7.4880000              0.484680D+00
                  3.2050000              0.579224D+00
                  0.5204000             -0.727553D-02
            S   13   1.00
             545000.0000000              0.404990D-05
              81640.0000000              0.313691D-04
              18580.0000000              0.165646D-03
               5261.0000000              0.691662D-03
               1717.0000000              0.249790D-02
                619.9000000              0.771074D-02
                241.6000000              0.208714D-01
                 99.7900000              0.443965D-01
                 43.1500000              0.680224D-01
                 19.1400000              0.141350D-01
                  7.4880000             -0.207489D+00
                  3.2050000             -0.425045D+00
                  0.5204000              0.733627D+00
            S   1   1.00
                  1.1960000              1.0000000
            S   1   1.00
                  0.1954000              1.0000000
            P   7   1.00
                761.8000000              0.236976D-02
                180.2000000              0.190199D-01
                 57.5000000              0.880807D-01
                 21.2400000              0.256377D+00
                  8.3880000              0.438711D+00
                  3.4160000              0.347569D+00
                  0.4523000             -0.523882D-02
            P   7   1.00
                761.8000000             -0.667211D-03
                180.2000000             -0.532717D-02
                 57.5000000             -0.255494D-01
                 21.2400000             -0.757197D-01
                  8.3880000             -0.141133D+00
                  3.4160000             -0.932768D-01
                  0.4523000              0.562450D+00
            P   1   1.00
                  1.2060000              1.0000000
            P   1   1.00
                  0.1545000              1.0000000
            D   1   1.00
                  5.5510000              1.0000000
            D   1   1.00
                  1.2350000              1.0000000
            D   1   1.00
                  0.4120000              1.0000000
            F   1   1.00
                  0.8900000              1.0000000
            ****
 Initial command:
 /usr/local/apps/g09/l1.exe "/wrk/irikura/Gau-31915.inp" -scrdir="/wrk/irikura/"
 Entering Link 1 = /usr/local/apps/g09/l1.exe PID=     31917.
  
 Copyright (c) 1988,1990,1992,1993,1995,1998,2003,2009,2013,
            Gaussian, Inc.  All Rights Reserved.
  
 This is part of the Gaussian(R) 09 program.  It is based on
 the Gaussian(R) 03 system (copyright 2003, Gaussian, Inc.),
 the Gaussian(R) 98 system (copyright 1998, Gaussian, Inc.),
 the Gaussian(R) 94 system (copyright 1995, Gaussian, Inc.),
 the Gaussian 92(TM) system (copyright 1992, Gaussian, Inc.),
 the Gaussian 90(TM) system (copyright 1990, Gaussian, Inc.),
 the Gaussian 88(TM) system (copyright 1988, Gaussian, Inc.),
 the Gaussian 86(TM) system (copyright 1986, Carnegie Mellon
 University), and the Gaussian 82(TM) system (copyright 1983,
 Carnegie Mellon University). Gaussian is a federally registered
 trademark of Gaussian, Inc.
  
 This software contains proprietary and confidential information,
 including trade secrets, belonging to Gaussian, Inc.
  
 This software is provided under written license and may be
 used, copied, transmitted, or stored only in accord with that
 written license.
  
 The following legend is applicable only to US Government
 contracts under FAR:
  
                    RESTRICTED RIGHTS LEGEND
  
 Use, reproduction and disclosure by the US Government is
 subject to restrictions as set forth in subparagraphs (a)
 and (c) of the Commercial Computer Software - Restricted
 Rights clause in FAR 52.227-19.
  
 Gaussian, Inc.
 340 Quinnipiac St., Bldg. 40, Wallingford CT 06492
  
  
 ---------------------------------------------------------------
 Warning -- This program may not be used in any manner that
 competes with the business of Gaussian, Inc. or will provide
 assistance to any competitor of Gaussian, Inc.  The licensee
 of this program is prohibited from giving any competitor of
 Gaussian, Inc. access to this program.  By using this program,
 the user acknowledges that Gaussian, Inc. is engaged in the
 business of creating and licensing software in the field of
 computational chemistry and represents and warrants to the
 licensee that it is not a competitor of Gaussian, Inc. and that
 it will not use this program in any manner prohibited above.
 ---------------------------------------------------------------
  

 Cite this work as:
 Gaussian 09, Revision D.01,
 M. J. Frisch, G. W. Trucks, H. B. Schlegel, G. E. Scuseria, 
 M. A. Robb, J. R. Cheeseman, G. Scalmani, V. Barone, B. Mennucci, 
 G. A. Petersson, H. Nakatsuji, M. Caricato, X. Li, H. P. Hratchian, 
 A. F. Izmaylov, J. Bloino, G. Zheng, J. L. Sonnenberg, M. Hada, 
 M. Ehara, K. Toyota, R. Fukuda, J. Hasegawa, M. Ishida, T. Nakajima, 
 Y. Honda, O. Kitao, H. Nakai, T. Vreven, J. A. Montgomery, Jr., 
 J. E. Peralta, F. Ogliaro, M. Bearpark, J. J. Heyd, E. Brothers, 
 K. N. Kudin, V. N. Staroverov, T. Keith, R. Kobayashi, J. Normand, 
 K. Raghavachari, A. Rendell, J. C. Burant, S. S. Iyengar, J. Tomasi, 
 M. Cossi, N. Rega, J. M. Millam, M. Klene, J. E. Knox, J. B. Cross, 
 V. Bakken, C. Adamo, J. Jaramillo, R. Gomperts, R. E. Stratmann, 
 O. Yazyev, A. J. Austin, R. Cammi, C. Pomelli, J. W. Ochterski, 
 R. L. Martin, K. Morokuma, V. G. Zakrzewski, G. A. Voth, 
 P. Salvador, J. J. Dannenberg, S. Dapprich, A. D. Daniels, 
 O. Farkas, J. B. Foresman, J. V. Ortiz, J. Cioslowski, 
 and D. J. Fox, Gaussian, Inc., Wallingford CT, 2013.
 
 ******************************************
 Gaussian 09:  ES64L-G09RevD.01 24-Apr-2013
                19-May-2017 
 ******************************************
 %chk=BiFClBrIAt.chk
 %nprocs=8
 Will use up to    8 processors via shared memory.
 %mem=2000mw
 ----------------------------------------------------------------------
 # CCSD(T,maxcyc=100)/GEN gfinput geom=check scf=xqc pseudo=read guess=
 check
 ----------------------------------------------------------------------
 1/29=2,38=1/1;
 2/12=2,40=1/2;
 3/5=7,11=9,14=-4,16=1,17=8,24=10,25=1,30=1,116=-2/1,2,3;
 4/5=1/1;
 5/5=2,8=3,13=1,38=6/2,8;
 8/6=4,9=120000,10=1/1,4;
 9/5=7,6=100,14=2/13;
 6/7=2,8=2,9=2,10=2/1;
 99/5=1,9=1/99;
 ------------------------------------------------------
 BEB step 7: high-spin CCSD(T) for cation of BiFClBrIAt
 ------------------------------------------------------
 Structure from the checkpoint file:  "BiFClBrIAt.chk"
 Charge =  1 Multiplicity = 4
 Redundant internal coordinates found in file.
 Bi,0,-0.9365127913,0.6634957207,-0.0229682709
 F,0,-0.9148015666,0.6506383511,2.0117615586
 Cl,0,-0.9482875525,0.673187048,-2.5888735473
 Br,0,-2.2655976762,2.8869666536,0.0529192917
 I,0,-2.4412175827,-1.7333450332,0.0647936077
 At,0,1.9930976294,0.7281258298,0.0723673602
 Recover connectivity data from disk.
                          Input orientation:                          
 ---------------------------------------------------------------------
 Center     Atomic      Atomic             Coordinates (Angstroms)
 Number     Number       Type             X           Y           Z
 ---------------------------------------------------------------------
      1         83           0       -0.936513    0.663496   -0.022968
      2          9           0       -0.914802    0.650638    2.011762
      3         17           0       -0.948288    0.673187   -2.588874
      4         35           0       -2.265598    2.886967    0.052919
      5         53           0       -2.441218   -1.733345    0.064794
      6         85           0        1.993098    0.728126    0.072367
 ---------------------------------------------------------------------
                    Distance matrix (angstroms):
                    1          2          3          4          5
     1  Bi   0.000000
     2  F    2.034886   0.000000
     3  Cl   2.565951   4.600812   0.000000
     4  Br   2.591534   3.265406   3.689877   0.000000
     5  I    2.831375   3.435696   3.881003   4.623663   0.000000
     6  At   2.931874   3.496160   3.966985   4.774668   5.071691
                    6
     6  At   0.000000
 Stoichiometry    AtBiBrClFI(1+,4)
 Framework group  C1[X(AtBiBrClFI)]
 Deg. of freedom    12
 Full point group                 C1      NOp   1
 Largest Abelian subgroup         C1      NOp   1
 Largest concise Abelian subgroup C1      NOp   1
                         Standard orientation:                         
 ---------------------------------------------------------------------
 Center     Atomic      Atomic             Coordinates (Angstroms)
 Number     Number       Type             X           Y           Z
 ---------------------------------------------------------------------
      1         83           0        0.374064    0.267985   -0.054105
      2          9           0        0.313649    0.165948   -2.085534
      3         17           0        0.437083    0.386067    2.508352
      4         35           0        1.029333    2.767885   -0.246893
      5         53           0        2.484600   -1.618625   -0.109103
      6         85           0       -2.458953   -0.486921   -0.058326
 ---------------------------------------------------------------------
 Rotational constants (GHZ):      0.3835675      0.2029668      0.1585664
 General basis read from cards:  (5D, 7F)
 ======================================================================================================
                                       Pseudopotential Parameters
 ======================================================================================================
  Center     Atomic      Valence      Angular      Power
  Number     Number     Electrons     Momentum     of R      Exponent        Coefficient   SO-Coeffient
 ======================================================================================================
    1         83            5
                                      H and up 
                                                     2        1.0000000        0.00000000    0.00000000
                                      S - H
                                                     2        0.1611520       -0.16198800    0.00000000
                                                     2        1.5098350       14.03169000    0.00000000
                                                     2       10.0000000      122.04740100    0.00000000
                                      P - H
                                                     2        0.7604900       -6.18852600    0.00000000
                                                     2        1.4264150       51.04586800    0.00000000
                                      D - H
                                                     2        0.7802260       20.53580400    0.00000000
                                                     2        0.2600750       -0.13619600    0.00000000
                                      F - H
                                                     2        0.9736080       -6.41422600    0.00000000
                                      G - H
                                                     2        1.0881950       -6.65606400    0.00000000
    2          9
                                   No pseudopotential on this center.
    3         17
                                   No pseudopotential on this center.
    4         35
                                   No pseudopotential on this center.
    5         53            7
                                      G and up 
                                                     2        1.0000000        0.00000000    0.00000000
                                      S - G
                                                     2        3.5112000       83.11386300    0.00000000
                                                     2        1.7556000        5.20187600    0.00000000
                                      P - G
                                                     2        2.9688000       82.81110900    0.00000000
                                                     2        1.4844000        3.37968200    0.00000000
                                      D - G
                                                     2        1.9066000       10.30427700    0.00000000
                                                     2        0.9533000        7.58803200    0.00000000
                                      F - G
                                                     2        2.3075000      -21.47793600    0.00000000
    6         85            7
                                      H and up 
                                                     2        1.0000000        0.00000000    0.00000000
                                      S - H
                                                     2        0.9223860       -5.52846100    0.00000000
                                                     2        1.7819150       39.56886900    0.00000000
                                                     2       10.0000000      170.71138600    0.00000000
                                      P - H
                                                     2        0.7242910       -2.29538700    0.00000000
                                                     2        1.3638600       25.49292000    0.00000000
                                      D - H
                                                     2        0.6359720        4.86510700    0.00000000
                                                     2        1.2719430       14.57941300    0.00000000
                                      F - H
                                                     2        1.1541080       -6.85786700    0.00000000
                                      G - H
                                                     2        1.3451150       -7.61303900    0.00000000
 ======================================================================================================
 AO basis set in the form of general basis input (Overlap normalization):
      1 0
 S   3 1.00       0.000000000000
      0.1425388000D+01  0.1551577849D+00
      0.9849140000D+00 -0.9337229251D+00
      0.2525140000D+00  0.1433392723D+01
 S   1 1.00       0.000000000000
      0.1006190000D+00  0.1000000000D+01
 P   3 1.00       0.000000000000
      0.1517283000D+01  0.5994662445D+00
      0.1253307000D+01 -0.8875967497D+00
      0.2079490000D+00  0.1121281412D+01
 P   1 1.00       0.000000000000
      0.6943300000D-01  0.1000000000D+01
 D   1 1.00       0.000000000000
      0.1700000000D+00  0.1000000000D+01
 ****
      2 0
 S   7 1.00       0.000000000000
      0.1950000000D+05  0.5190024441D-03
      0.2923000000D+04  0.4015781354D-02
      0.6645000000D+03  0.2067746110D-01
      0.1875000000D+03  0.8086901703D-01
      0.6062000000D+02  0.2358075463D+00
      0.2142000000D+02  0.4425823060D+00
      0.7950000000D+01  0.3569628672D+00
 S   6 1.00       0.000000000000
      0.6645000000D+03 -0.3735980873D-04
      0.1875000000D+03 -0.1277472297D-02
      0.6062000000D+02 -0.1082201399D-01
      0.2142000000D+02 -0.7004820894D-01
      0.7950000000D+01 -0.1697466078D+00
      0.8815000000D+00  0.1073026608D+01
 S   1 1.00       0.000000000000
      0.2257000000D+01  0.1000000000D+01
 S   1 1.00       0.000000000000
      0.3041000000D+00  0.1000000000D+01
 P   3 1.00       0.000000000000
      0.4388000000D+02  0.4190462069D-01
      0.9926000000D+01  0.2626978417D+00
      0.2930000000D+01  0.7977593735D+00
 P   1 1.00       0.000000000000
      0.9132000000D+00  0.1000000000D+01
 P   1 1.00       0.000000000000
      0.2672000000D+00  0.1000000000D+01
 D   1 1.00       0.000000000000
      0.3107000000D+01  0.1000000000D+01
 D   1 1.00       0.000000000000
      0.8550000000D+00  0.1000000000D+01
 F   1 1.00       0.000000000000
      0.1917000000D+01  0.1000000000D+01
 ****
      3 0
 S  11 1.00       0.000000000000
      0.4561000000D+06  0.4931994985D-04
      0.6833000000D+05  0.3832069654D-03
      0.1555000000D+05  0.2009478163D-02
      0.4405000000D+04  0.8389501239D-02
      0.1439000000D+04  0.2948439504D-01
      0.5204000000D+03  0.8787599478D-01
      0.2031000000D+03  0.2115897588D+00
      0.8396000000D+02  0.3656115542D+00
      0.3620000000D+02  0.3412463495D+00
      0.1583000000D+02  0.1021625703D+00
      0.6334000000D+01  0.2142500341D-02
 S   9 1.00       0.000000000000
      0.4405000000D+04 -0.2204447291D-05
      0.1439000000D+04 -0.1711436735D-03
      0.5204000000D+03 -0.1279090931D-02
      0.2031000000D+03 -0.9329228843D-02
      0.8396000000D+02 -0.3989041931D-01
      0.3620000000D+02 -0.1055355078D+00
      0.1583000000D+02  0.9362179729D-02
      0.6334000000D+01  0.5105109260D+00
      0.2694000000D+01  0.5731504921D+00
 S   8 1.00       0.000000000000
      0.1439000000D+04  0.4124162199D-05
      0.2031000000D+03  0.2104155934D-03
      0.8396000000D+02  0.8480710786D-03
      0.3620000000D+02  0.4599171473D-02
      0.1583000000D+02  0.4508898864D-03
      0.6334000000D+01 -0.7367222261D-01
      0.2694000000D+01 -0.3620654654D+00
      0.4313000000D+00  0.1166145419D+01
 S   1 1.00       0.000000000000
      0.9768000000D+00  0.1000000000D+01
 S   1 1.00       0.000000000000
      0.1625000000D+00  0.1000000000D+01
 P   6 1.00       0.000000000000
      0.6633000000D+03  0.2472064066D-02
      0.1568000000D+03  0.1975502338D-01
      0.4998000000D+02  0.9099173548D-01
      0.1842000000D+02  0.2631878341D+00
      0.7240000000D+01  0.4490780732D+00
      0.2922000000D+01  0.3601830723D+00
 P   6 1.00       0.000000000000
      0.1568000000D+03  0.3027166250D-04
      0.4998000000D+02 -0.1225086593D-02
      0.1842000000D+02 -0.6015248783D-02
      0.7240000000D+01 -0.2764176479D-01
      0.2922000000D+01  0.4338088816D-03
      0.3818000000D+00  0.1003073285D+01
 P   1 1.00       0.000000000000
      0.1022000000D+01  0.1000000000D+01
 P   1 1.00       0.000000000000
      0.1301000000D+00  0.1000000000D+01
 D   1 1.00       0.000000000000
      0.4610000000D+01  0.1000000000D+01
 D   1 1.00       0.000000000000
      0.1011000000D+01  0.1000000000D+01
 D   1 1.00       0.000000000000
      0.3390000000D+00  0.1000000000D+01
 F   1 1.00       0.000000000000
      0.7060000000D+00  0.1000000000D+01
 ****
      4 0
 S  15 1.00       0.000000000000
      0.1063900000D+08  0.5896745182D-05
      0.1593400000D+07  0.4607527397D-04
      0.3626100000D+06  0.2420703426D-03
      0.1027000000D+06  0.1022052987D-02
      0.3350100000D+05  0.3709304990D-02
      0.1209300000D+05  0.1197203072D-01
      0.4715900000D+04  0.3467357263D-01
      0.1955600000D+04  0.8907294870D-01
      0.8526100000D+03  0.1933345489D+00
      0.3876700000D+03  0.3206639187D+00
      0.1826800000D+03  0.3295807128D+00
      0.8824500000D+02  0.1492507898D+00
      0.3926300000D+02  0.1557648670D-01
      0.9405700000D+01  0.7937476363D-03
      0.1899500000D+01  0.2652217748D-03
 S  12 1.00       0.000000000000
      0.3350100000D+05 -0.5685368484D-05
      0.1209300000D+05 -0.3526665744D-04
      0.4715900000D+04 -0.3275393771D-03
      0.1955600000D+04 -0.1876292762D-02
      0.8526100000D+03 -0.1014145274D-01
      0.3876700000D+03 -0.3807024403D-01
      0.1826800000D+03 -0.9575369097D-01
      0.8824500000D+02 -0.4738405981D-01
      0.3926300000D+02  0.3475779953D+00
      0.1923400000D+02  0.5739455543D+00
      0.9405700000D+01  0.2142220792D+00
      0.1899500000D+01 -0.1029289626D-01
 S  10 1.00       0.000000000000
      0.4715900000D+04  0.7181053986D-05
      0.8526100000D+03  0.1208285928D-03
      0.3876700000D+03  0.4428524631D-03
      0.1826800000D+03  0.3051630834D-02
      0.8824500000D+02  0.3695717761D-02
      0.3926300000D+02 -0.4417925651D-01
      0.1923400000D+02 -0.2337907175D+00
      0.9405700000D+01 -0.4890374351D-01
      0.4160100000D+01  0.6443747050D+00
      0.1899500000D+01  0.5444241228D+00
 S  10 1.00       0.000000000000
      0.4715900000D+04  0.2458139072D-05
      0.8526100000D+03  0.1215428423D-04
      0.3876700000D+03 -0.4208452873D-04
      0.8824500000D+02 -0.2714111361D-03
      0.3926300000D+02  0.1883352367D-02
      0.1923400000D+02  0.1040094697D-01
      0.9405700000D+01  0.6185749577D-02
      0.4160100000D+01 -0.1115565467D+00
      0.1899500000D+01 -0.4479703046D+00
      0.3011400000D+00  0.1183147328D+01
 S   1 1.00       0.000000000000
      0.6047200000D+00  0.1000000000D+01
 S   1 1.00       0.000000000000
      0.1251500000D+00  0.1000000000D+01
 P   9 1.00       0.000000000000
      0.8676500000D+04  0.4370799928D-03
      0.2055900000D+04  0.3793550623D-02
      0.6662300000D+03  0.2054406734D-01
      0.2531000000D+03  0.7954593888D-01
      0.1061200000D+03  0.2186022953D+00
      0.4724200000D+02  0.3893039098D+00
      0.2182500000D+02  0.3606681106D+00
      0.9968400000D+01  0.1106779629D+00
      0.1998200000D+01 -0.1348076923D-02
 P   9 1.00       0.000000000000
      0.8676500000D+04  0.1001037777D-05
      0.6662300000D+03 -0.7061147843D-04
      0.2531000000D+03 -0.1155608171D-02
      0.1061200000D+03 -0.7097556197D-02
      0.4724200000D+02 -0.2449371243D-01
      0.2182500000D+02 -0.1019825987D-01
      0.9968400000D+01  0.2198547198D+00
      0.4517100000D+01  0.5157410171D+00
      0.1998200000D+01  0.3674940906D+00
 P   8 1.00       0.000000000000
      0.6662300000D+03 -0.2334848891D-04
      0.1061200000D+03 -0.3277965334D-03
      0.4724200000D+02  0.4194389334D-03
      0.2182500000D+02 -0.2206917161D-02
      0.9968400000D+01 -0.6452244639D-02
      0.4517100000D+01 -0.4684587242D-01
      0.1998200000D+01 -0.4091966659D-01
      0.2814500000D+00  0.1018158888D+01
 P   1 1.00       0.000000000000
      0.7098800000D+00  0.1000000000D+01
 P   1 1.00       0.000000000000
      0.1020400000D+00  0.1000000000D+01
 D   7 1.00       0.000000000000
      0.4038300000D+03  0.1517447384D-02
      0.1211700000D+03  0.1305311701D-01
      0.4634500000D+02  0.5978847757D-01
      0.1972100000D+02  0.1756315563D+00
      0.8862400000D+01  0.3281647864D+00
      0.3996200000D+01  0.3960507802D+00
      0.1763600000D+01  0.2819964600D+00
 D   1 1.00       0.000000000000
      0.7061900000D+00  0.1000000000D+01
 D   1 1.00       0.000000000000
      0.2639000000D+00  0.1000000000D+01
 F   1 1.00       0.000000000000
      0.5515000000D+00  0.1000000000D+01
 ****
      5 0
 S   3 1.00       0.000000000000
      0.2122765000D+01  0.2063429899D+01
      0.1770481000D+01 -0.2869526473D+01
      0.3130840000D+00  0.1404747074D+01
 S   1 1.00       0.000000000000
      0.1240710000D+00  0.1000000000D+01
 P   3 1.00       0.000000000000
      0.2432887000D+01  0.7732753148D+00
      0.2137249000D+01 -0.1020833156D+01
      0.3145460000D+00  0.1095666871D+01
 P   1 1.00       0.000000000000
      0.1049450000D+00  0.1000000000D+01
 P   1 1.00       0.000000000000
      0.3264100000D-01  0.1000000000D+01
 D   1 1.00       0.000000000000
      0.3020000000D+00  0.1000000000D+01
 ****
      6 0
 S   3 1.00       0.000000000000
      0.1962420000D+01  0.7836497076D+00
      0.1387359000D+01 -0.1548543810D+01
      0.2962310000D+00  0.1439673124D+01
 S   1 1.00       0.000000000000
      0.1041270000D+00  0.1000000000D+01
 P   3 1.00       0.000000000000
      0.2202138000D+01  0.1075076082D+00
      0.1338791000D+01 -0.3297162076D+00
      0.2620810000D+00  0.1103331080D+01
 P   1 1.00       0.000000000000
      0.9626800000D-01  0.1000000000D+01
 P   1 1.00       0.000000000000
      0.3784900000D-01  0.1000000000D+01
 D   1 1.00       0.000000000000
      0.2300000000D+00  0.1000000000D+01
 ****

 There are   177 symmetry adapted cartesian basis functions of A   symmetry.
 There are   157 symmetry adapted basis functions of A   symmetry.
   157 basis functions,   421 primitive gaussians,   177 cartesian basis functions
    41 alpha electrons       38 beta electrons
       nuclear repulsion energy       343.4458616690 Hartrees.
 NAtoms=    6 NActive=    6 NUniq=    6 SFac= 1.00D+00 NAtFMM=   60 NAOKFM=F Big=F
 Integral buffers will be    131072 words long.
 Raffenetti 2 integral format.
 Two-electron integral symmetry is turned on.
 One-electron integrals computed using PRISM.
   1 Symmetry operations used in ECPInt.
 ECPInt:  NShTT=    1540 NPrTT=   18166 LenC2=    1496 LenP2D=   11904.
 LDataN:  DoStor=T MaxTD1= 8 Len=  415
 NBasis=   157 RedAO= T EigKep=  8.89D-03  NBF=   157
 NBsUse=   157 1.00D-06 EigRej= -1.00D+00 NBFU=   157
 Initial guess from the checkpoint file:  "BiFClBrIAt.chk"
 B after Tr=     0.000000    0.000000    0.000000
         Rot=    1.000000    0.000000    0.000000    0.000000 Ang=   0.00 deg.
 Initial guess <Sx>= 0.0000 <Sy>= 0.0000 <Sz>= 1.5000 <S**2>= 3.7500 S= 1.5000
 Keep R1 and R2 ints in memory in canonical form, NReq=157293466.
 Requested convergence on RMS density matrix=1.00D-08 within  64 cycles.
 Requested convergence on MAX density matrix=1.00D-06.
 Requested convergence on             energy=1.00D-06.
 No special actions if energy rises.
 Rare condition: small coef for last iteration:  0.000D+00
 Rare condition: small coef for last iteration:  0.000D+00
 Rare condition: small coef for last iteration:  0.000D+00
 Rare condition: small coef for last iteration:  0.000D+00
 Rare condition: small coef for last iteration:  0.000D+00
 Rare condition: small coef for last iteration:  0.000D+00
 Rare condition: small coef for last iteration:  0.000D+00
 Rare condition: small coef for last iteration:  0.000D+00
 Rare condition: small coef for last iteration:  0.000D+00
 Rare condition: small coef for last iteration:  0.000D+00
 Rare condition: small coef for last iteration:  0.000D+00
 Rare condition: small coef for last iteration:  0.000D+00
 Rare condition: small coef for last iteration:  0.000D+00
 Rare condition: small coef for last iteration:  0.000D+00
 Rare condition: small coef for last iteration:  0.000D+00
 Rare condition: small coef for last iteration:  0.000D+00
 Rare condition: small coef for last iteration:  0.000D+00
 Rare condition: small coef for last iteration:  0.000D+00
 Rare condition: small coef for last iteration:  0.000D+00
 Rare condition: small coef for last iteration:  0.000D+00
 Rare condition: small coef for last iteration:  0.000D+00
 Rare condition: small coef for last iteration:  0.000D+00
 Rare condition: small coef for last iteration:  0.000D+00
 Rare condition: small coef for last iteration:  0.000D+00
 Rare condition: small coef for last iteration:  0.000D+00
 Rare condition: small coef for last iteration:  0.000D+00
 Rare condition: small coef for last iteration:  0.000D+00
 Rare condition: small coef for last iteration:  0.000D+00
 Rare condition: small coef for last iteration:  0.000D+00
 >>>>>>>>>> Convergence criterion not met.
 SCF Done:  E(UHF) =  -3158.33719949     A.U. after   65 cycles
            NFock= 64  Conv=0.22D-04     -V/T= 2.0060
 <Sx>= 0.0000 <Sy>= 0.0000 <Sz>= 1.5000 <S**2>= 3.8736 S= 1.5307
 <L.S>= 0.000000000000E+00
 Annihilation of the first spin contaminant:
 S**2 before annihilation     3.8736,   after     3.7553
 Keep R1 and R2 ints in memory in canonical form, NReq=157475027.
 Gradient too large for Newton-Raphson -- use scaled steepest descent instead.
     Minimum is close to point  5 DX=  2.98D-02 DF= -2.10D-07 DXR=  1.23D-02 DFR=  1.47D-04 which will be used.
 Gradient too large for Newton-Raphson -- use scaled steepest descent instead.
     Minimum is close to point  2 DX=  6.60D-02 DF= -7.82D-06 DXR=  6.83D-02 DFR=  4.69D-03 which will be used.
 Gradient too large for Newton-Raphson -- use scaled steepest descent instead.
 Gradient too large for Newton-Raphson -- use scaled steepest descent instead.
     Minimum is close to point  3 DX=  7.25D-02 DF= -3.77D-05 DXR=  8.31D-02 DFR=  6.96D-03 which will be used.
 Gradient too large for Newton-Raphson -- use scaled steepest descent instead.
 Gradient too large for Newton-Raphson -- use scaled steepest descent instead.
 Gradient too large for Newton-Raphson -- use scaled steepest descent instead.
     Minimum is close to point  2 DX= -1.31D-02 DF= -2.56D-07 DXR=  7.32D-03 DFR=  5.36D-05 which will be used.
 Gradient too large for Newton-Raphson -- use scaled steepest descent instead.
     Accept linear search using points  1 and  2.
 Gradient too large for Newton-Raphson -- use scaled steepest descent instead.
     Accept linear search using points  1 and  2.
     Minimum is close to point  2 DX= -4.33D-02 DF= -2.69D-06 DXR=  3.44D-02 DFR=  1.81D-03 which will be used.
 Gradient too large for Newton-Raphson -- use scaled steepest descent instead.
     Accept linear search using points  1 and  2.
 Gradient too large for Newton-Raphson -- use scaled steepest descent instead.
 Gradient too large for Newton-Raphson -- use scaled steepest descent instead.
     Accept linear search using points  1 and  2.
 Gradient too large for Newton-Raphson -- use scaled steepest descent instead.
     Minimum is close to point  2 DX=  1.06D-01 DF= -6.45D-06 DXR=  8.77D-02 DFR=  7.74D-03 which will be used.
 Gradient too large for Newton-Raphson -- use scaled steepest descent instead.
     Minimum is close to point  2 DX=  1.18D-01 DF= -7.60D-06 DXR=  9.68D-02 DFR=  9.45D-03 which will be used.
 Gradient too large for Newton-Raphson -- use scaled steepest descent instead.
     Minimum is close to point  2 DX=  2.44D-02 DF= -3.15D-07 DXR=  2.00D-02 DFR=  3.98D-04 which will be used.
 Gradient too large for Newton-Raphson -- use scaled steepest descent instead.
     Accept linear search using points  1 and  2.
     Minimum is close to point  2 DX= -1.06D-01 DF= -9.27D-06 DXR=  9.67D-02 DFR=  1.23D-02 which will be used.
 Gradient too large for Newton-Raphson -- use scaled steepest descent instead.
     Accept linear search using points  1 and  2.
 Gradient too large for Newton-Raphson -- use scaled steepest descent instead.
 Gradient too large for Newton-Raphson -- use scaled steepest descent instead.
     Accept linear search using points  1 and  2.
     Minimum is close to point  2 DX= -4.93D-02 DF= -1.89D-06 DXR=  4.70D-02 DFR=  2.61D-03 which will be used.
 Gradient too large for Newton-Raphson -- use scaled steepest descent instead.
     Accept linear search using points  1 and  2.
     Minimum is close to point  2 DX= -4.19D-02 DF= -1.31D-06 DXR=  3.96D-02 DFR=  1.85D-03 which will be used.
 Gradient too large for Newton-Raphson -- use scaled steepest descent instead.
     Accept linear search using points  1 and  2.
     Minimum is close to point  2 DX= -3.95D-02 DF= -1.13D-06 DXR=  3.72D-02 DFR=  1.64D-03 which will be used.
 Gradient too large for Newton-Raphson -- use scaled steepest descent instead.
     Accept linear search using points  1 and  2.
     Minimum is close to point  2 DX= -3.71D-02 DF= -9.50D-07 DXR=  3.49D-02 DFR=  1.44D-03 which will be used.
 Gradient too large for Newton-Raphson -- use scaled steepest descent instead.
     Accept linear search using points  1 and  2.
     Minimum is close to point  2 DX= -4.02D-02 DF= -1.08D-06 DXR=  3.79D-02 DFR=  1.70D-03 which will be used.
 Gradient too large for Newton-Raphson -- use scaled steepest descent instead.
     Accept linear search using points  1 and  2.
     Minimum is close to point  2 DX= -4.38D-02 DF= -1.22D-06 DXR=  4.14D-02 DFR=  2.02D-03 which will be used.
 Gradient too large for Newton-Raphson -- use scaled steepest descent instead.
     Accept linear search using points  1 and  2.
     Minimum is close to point  2 DX= -5.29D-02 DF= -1.71D-06 DXR=  5.05D-02 DFR=  3.02D-03 which will be used.
 Gradient too large for Newton-Raphson -- use scaled steepest descent instead.
     Accept linear search using points  1 and  2.
     Minimum is close to point  2 DX= -6.26D-02 DF= -2.26D-06 DXR=  6.03D-02 DFR=  4.27D-03 which will be used.
 Gradient too large for Newton-Raphson -- use scaled steepest descent instead.
     Minimum is close to point  2 DX=  2.64D-03 DF= -3.42D-09 DXR=  2.63D-03 DFR=  6.92D-06 which will be used.
 Gradient too large for Newton-Raphson -- use scaled steepest descent instead.
 Gradient too large for Newton-Raphson -- use scaled steepest descent instead.
     Accept linear search using points  1 and  2.
     Minimum is close to point  2 DX= -8.91D-02 DF= -3.76D-06 DXR=  8.82D-02 DFR=  9.12D-03 which will be used.
 Gradient too large for Newton-Raphson -- use scaled steepest descent instead.
     Accept linear search using points  1 and  2.
 Gradient too large for Newton-Raphson -- use scaled steepest descent instead.
 Gradient too large for Newton-Raphson -- use scaled steepest descent instead.
     Accept linear search using points  1 and  2.
     Minimum is close to point  2 DX= -6.54D-02 DF= -1.44D-06 DXR=  6.32D-02 DFR=  4.68D-03 which will be used.
 Gradient too large for Newton-Raphson -- use scaled steepest descent instead.
     Accept linear search using points  1 and  2.
     Minimum is close to point  2 DX= -9.14D-02 DF= -2.65D-06 DXR=  9.07D-02 DFR=  9.64D-03 which will be used.
 Gradient too large for Newton-Raphson -- use scaled steepest descent instead.
     Accept linear search using points  1 and  2.
     Minimum is close to point  2 DX= -3.92D-02 DF= -4.20D-07 DXR=  4.08D-02 DFR=  1.67D-03 which will be used.
 Gradient too large for Newton-Raphson -- use scaled steepest descent instead.
 Gradient too large for Newton-Raphson -- use scaled steepest descent instead.
     Minimum is close to point  2 DX=  4.79D-02 DF= -4.17D-07 DXR=  4.57D-02 DFR=  2.09D-03 which will be used.
 Gradient too large for Newton-Raphson -- use scaled steepest descent instead.
 Gradient too large for Newton-Raphson -- use scaled steepest descent instead.
     Accept linear search using points  1 and  2.
 Gradient too large for Newton-Raphson -- use scaled steepest descent instead.
     Minimum is close to point  2 DX=  7.01D-02 DF= -5.30D-07 DXR=  5.99D-02 DFR=  3.60D-03 which will be used.
 Gradient too large for Newton-Raphson -- use scaled steepest descent instead.
     Minimum is close to point  2 DX=  4.41D-02 DF= -2.00D-07 DXR=  3.85D-02 DFR=  1.49D-03 which will be used.
 Gradient too large for Newton-Raphson -- use scaled steepest descent instead.
     Accept linear search using points  1 and  2.
     Minimum is close to point  2 DX= -5.27D-02 DF= -3.49D-07 DXR=  4.60D-02 DFR=  2.84D-03 which will be used.
 Gradient too large for Newton-Raphson -- use scaled steepest descent instead.
     Accept linear search using points  1 and  2.
 Gradient too large for Newton-Raphson -- use scaled steepest descent instead.
     Minimum is close to point  2 DX=  1.08D-01 DF= -8.63D-07 DXR=  8.96D-02 DFR=  8.09D-03 which will be used.
 LinEq1:  Iter=  0 NonCon=     1 RMS=1.37D-04 Max=6.26D-03 NDo=     1
 AX will form     1 AO Fock derivatives at one time.
 LinEq1:  Iter=  1 NonCon=     1 RMS=9.27D-05 Max=2.67D-03 NDo=     1
 LinEq1:  Iter=  2 NonCon=     1 RMS=1.34D-05 Max=7.11D-04 NDo=     1
 LinEq1:  Iter=  3 NonCon=     1 RMS=3.76D-06 Max=1.24D-04 NDo=     1
 LinEq1:  Iter=  4 NonCon=     1 RMS=1.20D-06 Max=4.05D-05 NDo=     1
 LinEq1:  Iter=  5 NonCon=     1 RMS=4.05D-07 Max=1.38D-05 NDo=     1
 LinEq1:  Iter=  6 NonCon=     1 RMS=1.61D-07 Max=5.47D-06 NDo=     1
 LinEq1:  Iter=  7 NonCon=     1 RMS=5.72D-08 Max=1.86D-06 NDo=     1
 LinEq1:  Iter=  8 NonCon=     1 RMS=1.92D-08 Max=4.35D-07 NDo=     1
 LinEq1:  Iter=  9 NonCon=     1 RMS=8.18D-09 Max=2.06D-07 NDo=     1
 LinEq1:  Iter= 10 NonCon=     0 RMS=3.58D-09 Max=7.66D-08 NDo=     1
 Linear equations converged to 9.632D-09 9.632D-08 after    10 iterations.
 Incorrect curvature in search direction -- initial direction reversed.
 Gradient too large for Newton-Raphson -- use scaled steepest descent instead.
     Minimum is close to point  2 DX=  6.75D-02 DF= -1.35D-06 DXR=  5.78D-02 DFR=  3.36D-03 which will be used.
 Gradient too large for Newton-Raphson -- use scaled steepest descent instead.
     Accept linear search using points  1 and  2.
     Minimum is close to point  2 DX= -4.59D-02 DF= -5.53D-07 DXR=  3.97D-02 DFR=  2.13D-03 which will be used.
 Gradient too large for Newton-Raphson -- use scaled steepest descent instead.
     Accept linear search using points  1 and  2.
 Gradient too large for Newton-Raphson -- use scaled steepest descent instead.
     Minimum is close to point  2 DX=  1.11D-02 DF= -2.17D-08 DXR=  1.00D-02 DFR=  1.00D-04 which will be used.
 Gradient too large for Newton-Raphson -- use scaled steepest descent instead.
     Minimum is close to point  2 DX=  1.90D-02 DF= -5.87D-08 DXR=  1.70D-02 DFR=  2.89D-04 which will be used.
 Gradient too large for Newton-Raphson -- use scaled steepest descent instead.
     Minimum is close to point  2 DX=  2.14D-02 DF= -6.95D-08 DXR=  1.90D-02 DFR=  3.63D-04 which will be used.
 Gradient too large for Newton-Raphson -- use scaled steepest descent instead.
     Minimum is close to point  2 DX=  3.27D-02 DF= -1.52D-07 DXR=  2.89D-02 DFR=  8.35D-04 which will be used.
 Gradient too large for Newton-Raphson -- use scaled steepest descent instead.
     Minimum is close to point  2 DX=  3.91D-02 DF= -2.04D-07 DXR=  3.43D-02 DFR=  1.18D-03 which will be used.
 Gradient too large for Newton-Raphson -- use scaled steepest descent instead.
     Minimum is close to point  2 DX=  5.49D-02 DF= -3.78D-07 DXR=  4.76D-02 DFR=  2.27D-03 which will be used.
 Gradient too large for Newton-Raphson -- use scaled steepest descent instead.
     Minimum is close to point  2 DX=  6.58D-02 DF= -5.11D-07 DXR=  5.64D-02 DFR=  3.19D-03 which will be used.
 Gradient too large for Newton-Raphson -- use scaled steepest descent instead.
     Accept linear search using points  1 and  2.
     Minimum is close to point  2 DX= -9.02D-03 DF= -1.23D-08 DXR=  7.57D-03 DFR=  7.89D-05 which will be used.
 Gradient too large for Newton-Raphson -- use scaled steepest descent instead.
     Accept linear search using points  1 and  2.
 Gradient too large for Newton-Raphson -- use scaled steepest descent instead.
     Accept linear search using points  1 and  2.
     Minimum is close to point  2 DX= -4.50D-03 DF= -2.93D-09 DXR=  4.11D-03 DFR=  2.01D-05 which will be used.
 Gradient too large for Newton-Raphson -- use scaled steepest descent instead.
     Minimum is close to point  2 DX=  9.64D-03 DF= -1.06D-08 DXR=  8.68D-03 DFR=  7.54D-05 which will be used.
 Gradient too large for Newton-Raphson -- use scaled steepest descent instead.
     Minimum is close to point  2 DX=  3.22D-02 DF= -1.11D-07 DXR=  2.84D-02 DFR=  8.09D-04 which will be used.
 Gradient too large for Newton-Raphson -- use scaled steepest descent instead.
     Minimum is close to point  2 DX=  4.97D-02 DF= -2.50D-07 DXR=  4.32D-02 DFR=  1.87D-03 which will be used.
 Gradient too large for Newton-Raphson -- use scaled steepest descent instead.
     Minimum is close to point  2 DX=  7.47D-02 DF= -5.30D-07 DXR=  6.36D-02 DFR=  4.06D-03 which will be used.
 Gradient too large for Newton-Raphson -- use scaled steepest descent instead.
     Accept linear search using points  1 and  2.
     Minimum is close to point  2 DX= -3.00D-03 DF= -1.11D-09 DXR=  2.50D-03 DFR=  8.67D-06 which will be used.
 Gradient too large for Newton-Raphson -- use scaled steepest descent instead.
     Accept linear search using points  1 and  2.
 Gradient too large for Newton-Raphson -- use scaled steepest descent instead.
     Accept linear search using points  1 and  2.
     Minimum is close to point  2 DX= -1.13D-02 DF= -1.57D-08 DXR=  1.04D-02 DFR=  1.29D-04 which will be used.
 Gradient too large for Newton-Raphson -- use scaled steepest descent instead.
     Minimum is close to point  2 DX=  7.14D-03 DF= -4.93D-09 DXR=  6.45D-03 DFR=  4.16D-05 which will be used.
 Gradient too large for Newton-Raphson -- use scaled steepest descent instead.
     Minimum is close to point  2 DX=  2.46D-02 DF= -5.52D-08 DXR=  2.19D-02 DFR=  4.80D-04 which will be used.
 Gradient too large for Newton-Raphson -- use scaled steepest descent instead.
     Minimum is close to point  2 DX=  4.83D-02 DF= -1.99D-07 DXR=  4.20D-02 DFR=  1.77D-03 which will be used.
 Gradient too large for Newton-Raphson -- use scaled steepest descent instead.
     Minimum is close to point  2 DX=  6.68D-02 DF= -3.59D-07 DXR=  5.72D-02 DFR=  3.29D-03 which will be used.
 Gradient too large for Newton-Raphson -- use scaled steepest descent instead.
     Accept linear search using points  1 and  2.
     Minimum is close to point  2 DX= -5.52D-03 DF= -3.16D-09 DXR=  4.62D-03 DFR=  2.95D-05 which will be used.
 Gradient too large for Newton-Raphson -- use scaled steepest descent instead.
     Accept linear search using points  1 and  2.
 Gradient too large for Newton-Raphson -- use scaled steepest descent instead.
     Accept linear search using points  1 and  2.
     Minimum is close to point  2 DX= -6.95D-03 DF= -4.85D-09 DXR=  6.36D-03 DFR=  4.81D-05 which will be used.
 Gradient too large for Newton-Raphson -- use scaled steepest descent instead.
     Minimum is close to point  2 DX=  6.95D-03 DF= -3.85D-09 DXR=  6.28D-03 DFR=  3.95D-05 which will be used.
 Gradient too large for Newton-Raphson -- use scaled steepest descent instead.
     Minimum is close to point  2 DX=  2.77D-02 DF= -5.75D-08 DXR=  2.46D-02 DFR=  6.06D-04 which will be used.
 LinEq1:  Iter=  0 NonCon=     1 RMS=1.28D-04 Max=5.90D-03 NDo=     1
 LinEq1:  Iter=  1 NonCon=     1 RMS=9.26D-05 Max=2.80D-03 NDo=     1
 LinEq1:  Iter=  2 NonCon=     1 RMS=4.66D-06 Max=1.90D-04 NDo=     1
 LinEq1:  Iter=  3 NonCon=     1 RMS=9.45D-07 Max=4.08D-05 NDo=     1
 LinEq1:  Iter=  4 NonCon=     1 RMS=3.66D-07 Max=1.09D-05 NDo=     1
 LinEq1:  Iter=  5 NonCon=     1 RMS=8.91D-08 Max=3.06D-06 NDo=     1
 LinEq1:  Iter=  6 NonCon=     1 RMS=3.20D-08 Max=6.98D-07 NDo=     1
 LinEq1:  Iter=  7 NonCon=     1 RMS=1.70D-08 Max=5.62D-07 NDo=     1
 LinEq1:  Iter=  8 NonCon=     1 RMS=5.93D-09 Max=1.59D-07 NDo=     1
 LinEq1:  Iter=  9 NonCon=     0 RMS=2.12D-09 Max=3.87D-08 NDo=     1
 Linear equations converged to 9.632D-09 9.632D-08 after     9 iterations.
     Minimum is close to point  3 DX= -3.25D-02 DF= -1.42D-05 DXR=  8.84D-02 DFR=  7.87D-03 which will be used.
 Gradient too large for Newton-Raphson -- use scaled steepest descent instead.
     Minimum is close to point  2 DX=  1.16D-01 DF= -1.25D-06 DXR=  9.53D-02 DFR=  9.17D-03 which will be used.
 LinEq1:  Iter=  0 NonCon=     1 RMS=6.22D-05 Max=2.73D-03 NDo=     1
 LinEq1:  Iter=  1 NonCon=     1 RMS=5.01D-05 Max=2.01D-03 NDo=     1
 LinEq1:  Iter=  2 NonCon=     1 RMS=1.51D-05 Max=3.91D-04 NDo=     1
 LinEq1:  Iter=  3 NonCon=     1 RMS=3.93D-06 Max=7.07D-05 NDo=     1
 LinEq1:  Iter=  4 NonCon=     1 RMS=1.51D-06 Max=6.14D-05 NDo=     1
 LinEq1:  Iter=  5 NonCon=     1 RMS=5.15D-07 Max=1.61D-05 NDo=     1
 LinEq1:  Iter=  6 NonCon=     1 RMS=2.46D-07 Max=7.33D-06 NDo=     1
 LinEq1:  Iter=  7 NonCon=     1 RMS=7.96D-08 Max=2.17D-06 NDo=     1
 LinEq1:  Iter=  8 NonCon=     1 RMS=3.31D-08 Max=8.02D-07 NDo=     1
 LinEq1:  Iter=  9 NonCon=     1 RMS=1.16D-08 Max=3.13D-07 NDo=     1
 LinEq1:  Iter= 10 NonCon=     0 RMS=4.29D-09 Max=8.27D-08 NDo=     1
 Linear equations converged to 9.632D-09 9.632D-08 after    10 iterations.
     Accept linear search using points  1 and  2.
     Minimum is close to point  2 DX= -2.67D-02 DF= -2.33D-07 DXR=  2.74D-02 DFR=  7.74D-04 which will be used.
 LinEq1:  Iter=  0 NonCon=     1 RMS=2.10D-05 Max=5.87D-04 NDo=     1
 LinEq1:  Iter=  1 NonCon=     1 RMS=3.57D-06 Max=8.76D-05 NDo=     1
 LinEq1:  Iter=  2 NonCon=     1 RMS=2.03D-06 Max=7.20D-05 NDo=     1
 LinEq1:  Iter=  3 NonCon=     1 RMS=7.52D-07 Max=1.73D-05 NDo=     1
 LinEq1:  Iter=  4 NonCon=     1 RMS=3.47D-07 Max=6.30D-06 NDo=     1
 LinEq1:  Iter=  5 NonCon=     1 RMS=1.59D-07 Max=5.64D-06 NDo=     1
 LinEq1:  Iter=  6 NonCon=     1 RMS=7.37D-08 Max=1.40D-06 NDo=     1
 LinEq1:  Iter=  7 NonCon=     1 RMS=3.39D-08 Max=8.53D-07 NDo=     1
 LinEq1:  Iter=  8 NonCon=     1 RMS=1.34D-08 Max=3.07D-07 NDo=     1
 LinEq1:  Iter=  9 NonCon=     1 RMS=5.37D-09 Max=2.60D-07 NDo=     1
 LinEq1:  Iter= 10 NonCon=     0 RMS=1.94D-09 Max=4.23D-08 NDo=     1
 Linear equations converged to 9.632D-09 9.632D-08 after    10 iterations.
     Accept linear search using points  1 and  2.
     Minimum is close to point  2 DX= -2.56D-03 DF= -5.59D-11 DXR=  2.57D-03 DFR=  6.62D-06 which will be used.
 LinEq1:  Iter=  0 NonCon=     1 RMS=1.30D-06 Max=2.86D-05 NDo=     1
 LinEq1:  Iter=  1 NonCon=     1 RMS=7.98D-07 Max=4.89D-05 NDo=     1
 LinEq1:  Iter=  2 NonCon=     1 RMS=2.45D-07 Max=5.49D-06 NDo=     1
 LinEq1:  Iter=  3 NonCon=     1 RMS=1.13D-07 Max=3.36D-06 NDo=     1
 LinEq1:  Iter=  4 NonCon=     1 RMS=5.70D-08 Max=1.21D-06 NDo=     1
 LinEq1:  Iter=  5 NonCon=     1 RMS=2.56D-08 Max=8.05D-07 NDo=     1
 LinEq1:  Iter=  6 NonCon=     1 RMS=1.07D-08 Max=2.48D-07 NDo=     1
 LinEq1:  Iter=  7 NonCon=     1 RMS=4.73D-09 Max=1.10D-07 NDo=     1
 LinEq1:  Iter=  8 NonCon=     1 RMS=1.88D-09 Max=4.96D-08 NDo=     1
 LinEq1:  Iter=  9 NonCon=     1 RMS=8.62D-10 Max=1.99D-08 NDo=     1
 LinEq1:  Iter= 10 NonCon=     0 RMS=2.98D-10 Max=4.89D-09 NDo=     1
 Linear equations converged to 1.668D-09 1.668D-08 after    10 iterations.
     Accept linear search using points  1 and  2.
     Minimum is close to point  2 DX= -1.65D-02 DF= -9.09D-12 DXR=  1.67D-02 DFR=  2.78D-04 which will be used.
 LinEq1:  Iter=  0 NonCon=     1 RMS=2.48D-07 Max=4.04D-06 NDo=     1
 LinEq1:  Iter=  1 NonCon=     1 RMS=1.12D-07 Max=2.80D-06 NDo=     1
 LinEq1:  Iter=  2 NonCon=     1 RMS=4.88D-08 Max=1.24D-06 NDo=     1
 LinEq1:  Iter=  3 NonCon=     1 RMS=2.07D-08 Max=5.60D-07 NDo=     1
 LinEq1:  Iter=  4 NonCon=     1 RMS=1.04D-08 Max=2.83D-07 NDo=     1
 LinEq1:  Iter=  5 NonCon=     1 RMS=4.65D-09 Max=1.45D-07 NDo=     1
 LinEq1:  Iter=  6 NonCon=     1 RMS=2.35D-09 Max=5.61D-08 NDo=     1
 LinEq1:  Iter=  7 NonCon=     1 RMS=1.04D-09 Max=2.91D-08 NDo=     1
 LinEq1:  Iter=  8 NonCon=     1 RMS=3.60D-10 Max=6.58D-09 NDo=     1
 LinEq1:  Iter=  9 NonCon=     1 RMS=1.38D-10 Max=7.88D-09 NDo=     1
 LinEq1:  Iter= 10 NonCon=     0 RMS=5.97D-11 Max=1.46D-09 NDo=     1
 Linear equations converged to 3.357D-10 3.357D-09 after    10 iterations.
 LinEq1:  Iter=  0 NonCon=     1 RMS=2.46D-08 Max=6.04D-07 NDo=     1
 LinEq1:  Iter=  1 NonCon=     1 RMS=1.79D-08 Max=1.30D-06 NDo=     1
 LinEq1:  Iter=  2 NonCon=     1 RMS=5.03D-09 Max=7.90D-08 NDo=     1
 LinEq1:  Iter=  3 NonCon=     1 RMS=2.18D-09 Max=6.00D-08 NDo=     1
 LinEq1:  Iter=  4 NonCon=     1 RMS=1.14D-09 Max=2.68D-08 NDo=     1
 LinEq1:  Iter=  5 NonCon=     1 RMS=5.05D-10 Max=1.65D-08 NDo=     1
 LinEq1:  Iter=  6 NonCon=     1 RMS=1.96D-10 Max=5.87D-09 NDo=     1
 LinEq1:  Iter=  7 NonCon=     1 RMS=9.14D-11 Max=3.00D-09 NDo=     1
 LinEq1:  Iter=  8 NonCon=     1 RMS=3.60D-11 Max=9.49D-10 NDo=     1
 LinEq1:  Iter=  9 NonCon=     1 RMS=1.47D-11 Max=3.71D-10 NDo=     1
 LinEq1:  Iter= 10 NonCon=     0 RMS=6.50D-12 Max=1.52D-10 NDo=     1
 Linear equations converged to 2.813D-11 2.813D-10 after    10 iterations.
 SCF Done:  E(UHF) =  -3158.40458262     a.u. after   81 cycles
            Convg  =    0.5845D-06                   218 Fock formations.
              S**2 =  3.8139                  -V/T =  2.0060
 <Sx>= 0.0000 <Sy>= 0.0000 <Sz>= 1.5000 <S**2>= 3.8139 S= 1.5159
 <L.S>= 0.000000000000E+00
 Annihilation of the first spin contaminant:
 S**2 before annihilation     3.8139,   after     3.7518
 ExpMin= 3.26D-02 ExpMax= 1.06D+07 ExpMxC= 1.21D+04 IAcc=3 IRadAn=         5 AccDes= 0.00D+00
 HarFok:  IExCor=  205 AccDes= 0.00D+00 IRadAn=         5 IDoV=-2 UseB2=F ITyADJ=14
 ICtDFT= 12500011 ScaDFX=  1.000000  1.000000  1.000000  1.000000
 Defaulting to unpruned grid for atomic number  83.
 Defaulting to unpruned grid for atomic number  83.
 Defaulting to unpruned grid for atomic number  83.
 Defaulting to unpruned grid for atomic number  83.
 Defaulting to unpruned grid for atomic number  83.
 Defaulting to unpruned grid for atomic number  83.
 Defaulting to unpruned grid for atomic number  83.
 Defaulting to unpruned grid for atomic number  83.
 DSYEVD-2 returned Info=          87 IAlg= 4 N=    43 NDim=    43 NE2=    48769149 trying  DSYEV.
 Range of M.O.s used for correlation:    16   157
 NBasis=   157 NAE=    41 NBE=    38 NFC=    15 NFV=     0
 NROrb=    142 NOA=    26 NOB=    23 NVA=   116 NVB=   119
 Semi-Direct transformation.
 ModeAB=           4 MOrb=            26 LenV=    2096286739
 LASXX=     32413901 LTotXX=    32413901 LenRXX=    66599052
 LTotAB=    34185151 MaxLAS=    55092024 LenRXY=           0
 NonZer=    99012953 LenScr=   149265920 LnRSAI=    55092024
 LnScr1=    83386368 LExtra=           0 Total=    354343364
 MaxDsk=          -1 SrtSym=           T ITran=            4
 JobTyp=1 Pass  1:  I=   1 to  26.
 (rs|ai) integrals will be sorted in core.
 ModeAB=           4 MOrb=            23 LenV=    2096286739
 LASXX=     29208551 LTotXX=    29208551 LenRXX=    49654769
 LTotAB=    20446218 MaxLAS=    48735252 LenRXY=           0
 NonZer=    78863320 LenScr=   119070720 LnRSAI=    48735252
 LnScr1=    73876480 LExtra=           0 Total=    291337221
 MaxDsk=          -1 SrtSym=           T ITran=            4
 JobTyp=2 Pass  1:  I=   1 to  23.
 (rs|ai) integrals will be sorted in core.
 Spin components of T(2) and E(2):
     alpha-alpha T2 =       0.4715789266D-01 E2=     -0.1338497687D+00
     alpha-beta  T2 =       0.2317195107D+00 E2=     -0.6631413680D+00
     beta-beta   T2 =       0.4407916597D-01 E2=     -0.1184090863D+00
 ANorm=    0.1150198491D+01
 E2 =    -0.9154002229D+00 EUMP2 =    -0.31593199828416D+04
 (S**2,0)=  0.38139D+01           (S**2,1)=  0.37714D+01
 E(PUHF)=      -0.31584102816D+04        E(PMP2)=      -0.31593238215D+04
 Keep R2 and R3 ints in memory in canonical form, NReq=156989584.
 Iterations= 100 Convergence= 0.100D-06
 Iteration Nr.   1
 **********************
 DD1Dir will call FoFMem   1 times, MxPair=      1774
 NAB=   598 NAA=   325 NBB=   253.
 E(PMP3)=      -0.31593531024D+04
 MP4(R+Q)=  0.19928442D-01
 E3=       -0.30907913D-01        EUMP3=      -0.31593508908D+04
 E4(DQ)=    0.59871274D-03        UMP4(DQ)=   -0.31593502920D+04
 E4(SDQ)=  -0.86359253D-02        UMP4(SDQ)=  -0.31593595267D+04
 DE(Corr)= -0.92611525     E(Corr)=     -3159.3306979    
 NORM(A)=   0.11608033D+01
 Iteration Nr.   2
 **********************
 DD1Dir will call FoFMem   1 times, MxPair=      1774
 NAB=   598 NAA=   325 NBB=   253.
 DE(Corr)= -0.94980479     E(CORR)=     -3159.3543874     Delta=-2.37D-02
 NORM(A)=   0.11714242D+01
 Iteration Nr.   3
 **********************
 DD1Dir will call FoFMem   1 times, MxPair=      1774
 NAB=   598 NAA=   325 NBB=   253.
 DE(Corr)= -0.94933982     E(CORR)=     -3159.3539224     Delta= 4.65D-04
 NORM(A)=   0.11750385D+01
 Iteration Nr.   4
 **********************
 DD1Dir will call FoFMem   1 times, MxPair=      1774
 NAB=   598 NAA=   325 NBB=   253.
 DE(Corr)= -0.95180837     E(CORR)=     -3159.3563910     Delta=-2.47D-03
 NORM(A)=   0.11773938D+01
 Iteration Nr.   5
 **********************
 DD1Dir will call FoFMem   1 times, MxPair=      1774
 NAB=   598 NAA=   325 NBB=   253.
 DE(Corr)= -0.95229172     E(CORR)=     -3159.3568743     Delta=-4.83D-04
 NORM(A)=   0.11790438D+01
 Iteration Nr.   6
 **********************
 DD1Dir will call FoFMem   1 times, MxPair=      1774
 NAB=   598 NAA=   325 NBB=   253.
 DE(Corr)= -0.95244140     E(CORR)=     -3159.3570240     Delta=-1.50D-04
 NORM(A)=   0.11800493D+01
 Iteration Nr.   7
 **********************
 DD1Dir will call FoFMem   1 times, MxPair=      1774
 NAB=   598 NAA=   325 NBB=   253.
 DE(Corr)= -0.95250735     E(CORR)=     -3159.3570900     Delta=-6.59D-05
 NORM(A)=   0.11803686D+01
 Iteration Nr.   8
 **********************
 DD1Dir will call FoFMem   1 times, MxPair=      1774
 NAB=   598 NAA=   325 NBB=   253.
 DE(Corr)= -0.95252378     E(CORR)=     -3159.3571064     Delta=-1.64D-05
 NORM(A)=   0.11805214D+01
 Iteration Nr.   9
 **********************
 DD1Dir will call FoFMem   1 times, MxPair=      1774
 NAB=   598 NAA=   325 NBB=   253.
 DE(Corr)= -0.95251807     E(CORR)=     -3159.3571007     Delta= 5.71D-06
 NORM(A)=   0.11805899D+01
 Iteration Nr.  10
 **********************
 DD1Dir will call FoFMem   1 times, MxPair=      1774
 NAB=   598 NAA=   325 NBB=   253.
 DE(Corr)= -0.95253623     E(CORR)=     -3159.3571188     Delta=-1.82D-05
 NORM(A)=   0.11806056D+01
 Iteration Nr.  11
 **********************
 DD1Dir will call FoFMem   1 times, MxPair=      1774
 NAB=   598 NAA=   325 NBB=   253.
 DE(Corr)= -0.95253319     E(CORR)=     -3159.3571158     Delta= 3.04D-06
 NORM(A)=   0.11806256D+01
 Iteration Nr.  12
 **********************
 DD1Dir will call FoFMem   1 times, MxPair=      1774
 NAB=   598 NAA=   325 NBB=   253.
 DE(Corr)= -0.95254292     E(CORR)=     -3159.3571255     Delta=-9.73D-06
 NORM(A)=   0.11806373D+01
 Iteration Nr.  13
 **********************
 DD1Dir will call FoFMem   1 times, MxPair=      1774
 NAB=   598 NAA=   325 NBB=   253.
 DE(Corr)= -0.95253919     E(CORR)=     -3159.3571218     Delta= 3.73D-06
 NORM(A)=   0.11806545D+01
 Iteration Nr.  14
 **********************
 DD1Dir will call FoFMem   1 times, MxPair=      1774
 NAB=   598 NAA=   325 NBB=   253.
 DE(Corr)= -0.95254310     E(CORR)=     -3159.3571257     Delta=-3.91D-06
 NORM(A)=   0.11806708D+01
 Iteration Nr.  15
 **********************
 DD1Dir will call FoFMem   1 times, MxPair=      1774
 NAB=   598 NAA=   325 NBB=   253.
 DE(Corr)= -0.95254178     E(CORR)=     -3159.3571244     Delta= 1.32D-06
 NORM(A)=   0.11806888D+01
 Iteration Nr.  16
 **********************
 DD1Dir will call FoFMem   1 times, MxPair=      1774
 NAB=   598 NAA=   325 NBB=   253.
 DE(Corr)= -0.95254378     E(CORR)=     -3159.3571264     Delta=-2.00D-06
 NORM(A)=   0.11807102D+01
 Iteration Nr.  17
 **********************
 DD1Dir will call FoFMem   1 times, MxPair=      1774
 NAB=   598 NAA=   325 NBB=   253.
 DE(Corr)= -0.95254543     E(CORR)=     -3159.3571280     Delta=-1.65D-06
 NORM(A)=   0.11807247D+01
 Iteration Nr.  18
 **********************
 DD1Dir will call FoFMem   1 times, MxPair=      1774
 NAB=   598 NAA=   325 NBB=   253.
 DE(Corr)= -0.95254602     E(CORR)=     -3159.3571286     Delta=-5.96D-07
 NORM(A)=   0.11807370D+01
 Iteration Nr.  19
 **********************
 DD1Dir will call FoFMem   1 times, MxPair=      1774
 NAB=   598 NAA=   325 NBB=   253.
 DE(Corr)= -0.95254778     E(CORR)=     -3159.3571304     Delta=-1.75D-06
 NORM(A)=   0.11807423D+01
 Iteration Nr.  20
 **********************
 DD1Dir will call FoFMem   1 times, MxPair=      1774
 NAB=   598 NAA=   325 NBB=   253.
 DE(Corr)= -0.95254691     E(CORR)=     -3159.3571295     Delta= 8.63D-07
 NORM(A)=   0.11807432D+01
 Iteration Nr.  21
 **********************
 DD1Dir will call FoFMem   1 times, MxPair=      1774
 NAB=   598 NAA=   325 NBB=   253.
 DE(Corr)= -0.95254774     E(CORR)=     -3159.3571304     Delta=-8.30D-07
 NORM(A)=   0.11807416D+01
 Iteration Nr.  22
 **********************
 DD1Dir will call FoFMem   1 times, MxPair=      1774
 NAB=   598 NAA=   325 NBB=   253.
 DE(Corr)= -0.95254650     E(CORR)=     -3159.3571291     Delta= 1.24D-06
 NORM(A)=   0.11807371D+01
 Iteration Nr.  23
 **********************
 DD1Dir will call FoFMem   1 times, MxPair=      1774
 NAB=   598 NAA=   325 NBB=   253.
 DE(Corr)= -0.95254659     E(CORR)=     -3159.3571292     Delta=-9.11D-08
 NORM(A)=   0.11807355D+01
 Iteration Nr.  24
 **********************
 DD1Dir will call FoFMem   1 times, MxPair=      1774
 NAB=   598 NAA=   325 NBB=   253.
 DE(Corr)= -0.95254613     E(CORR)=     -3159.3571287     Delta= 4.65D-07
 NORM(A)=   0.11807335D+01
 Iteration Nr.  25
 **********************
 DD1Dir will call FoFMem   1 times, MxPair=      1774
 NAB=   598 NAA=   325 NBB=   253.
 DE(Corr)= -0.95254601     E(CORR)=     -3159.3571286     Delta= 1.20D-07
 NORM(A)=   0.11807339D+01
 Iteration Nr.  26
 **********************
 DD1Dir will call FoFMem   1 times, MxPair=      1774
 NAB=   598 NAA=   325 NBB=   253.
 DE(Corr)= -0.95254608     E(CORR)=     -3159.3571287     Delta=-7.46D-08
 NORM(A)=   0.11807350D+01
 Iteration Nr.  27
 **********************
 DD1Dir will call FoFMem   1 times, MxPair=      1774
 NAB=   598 NAA=   325 NBB=   253.
 DE(Corr)= -0.95254583     E(CORR)=     -3159.3571284     Delta= 2.57D-07
 NORM(A)=   0.11807369D+01
 Iteration Nr.  28
 **********************
 DD1Dir will call FoFMem   1 times, MxPair=      1774
 NAB=   598 NAA=   325 NBB=   253.
 DE(Corr)= -0.95254616     E(CORR)=     -3159.3571288     Delta=-3.35D-07
 NORM(A)=   0.11807396D+01
 Iteration Nr.  29
 **********************
 DD1Dir will call FoFMem   1 times, MxPair=      1774
 NAB=   598 NAA=   325 NBB=   253.
 DE(Corr)= -0.95254604     E(CORR)=     -3159.3571287     Delta= 1.21D-07
 NORM(A)=   0.11807414D+01
 Iteration Nr.  30
 **********************
 DD1Dir will call FoFMem   1 times, MxPair=      1774
 NAB=   598 NAA=   325 NBB=   253.
 DE(Corr)= -0.95254636     E(CORR)=     -3159.3571290     Delta=-3.15D-07
 NORM(A)=   0.11807433D+01
 Iteration Nr.  31
 **********************
 DD1Dir will call FoFMem   1 times, MxPair=      1774
 NAB=   598 NAA=   325 NBB=   253.
 DE(Corr)= -0.95254640     E(CORR)=     -3159.3571290     Delta=-4.46D-08
 NORM(A)=   0.11807444D+01
 Iteration Nr.  32
 **********************
 DD1Dir will call FoFMem   1 times, MxPair=      1774
 NAB=   598 NAA=   325 NBB=   253.
 DE(Corr)= -0.95254648     E(CORR)=     -3159.3571291     Delta=-7.81D-08
 NORM(A)=   0.11807451D+01
 Iteration Nr.  33
 **********************
 DD1Dir will call FoFMem   1 times, MxPair=      1774
 NAB=   598 NAA=   325 NBB=   253.
 DE(Corr)= -0.95254662     E(CORR)=     -3159.3571292     Delta=-1.38D-07
 NORM(A)=   0.11807451D+01
 Iteration Nr.  34
 **********************
 DD1Dir will call FoFMem   1 times, MxPair=      1774
 NAB=   598 NAA=   325 NBB=   253.
 DE(Corr)= -0.95254643     E(CORR)=     -3159.3571290     Delta= 1.86D-07
 NORM(A)=   0.11807446D+01
 Iteration Nr.  35
 **********************
 DD1Dir will call FoFMem   1 times, MxPair=      1774
 NAB=   598 NAA=   325 NBB=   253.
 DE(Corr)= -0.95254651     E(CORR)=     -3159.3571291     Delta=-8.46D-08
 NORM(A)=   0.11807439D+01
 Iteration Nr.  36
 **********************
 DD1Dir will call FoFMem   1 times, MxPair=      1774
 NAB=   598 NAA=   325 NBB=   253.
 DE(Corr)= -0.95254624     E(CORR)=     -3159.3571289     Delta= 2.72D-07
 NORM(A)=   0.11807434D+01
 Iteration Nr.  37
 **********************
 DD1Dir will call FoFMem   1 times, MxPair=      1774
 NAB=   598 NAA=   325 NBB=   253.
 DE(Corr)= -0.95254626     E(CORR)=     -3159.3571289     Delta=-2.11D-08
 NORM(A)=   0.11807434D+01
 Iteration Nr.  38
 **********************
 DD1Dir will call FoFMem   1 times, MxPair=      1774
 NAB=   598 NAA=   325 NBB=   253.
 DE(Corr)= -0.95254624     E(CORR)=     -3159.3571289     Delta= 2.55D-08
 NORM(A)=   0.11807439D+01
 Iteration Nr.  39
 **********************
 DD1Dir will call FoFMem   1 times, MxPair=      1774
 NAB=   598 NAA=   325 NBB=   253.
 DE(Corr)= -0.95254622     E(CORR)=     -3159.3571288     Delta= 2.18D-08
 NORM(A)=   0.11807447D+01
 Iteration Nr.  40
 **********************
 DD1Dir will call FoFMem   1 times, MxPair=      1774
 NAB=   598 NAA=   325 NBB=   253.
 DE(Corr)= -0.95254636     E(CORR)=     -3159.3571290     Delta=-1.46D-07
 NORM(A)=   0.11807456D+01
 Iteration Nr.  41
 **********************
 DD1Dir will call FoFMem   1 times, MxPair=      1774
 NAB=   598 NAA=   325 NBB=   253.
 DE(Corr)= -0.95254635     E(CORR)=     -3159.3571290     Delta= 1.52D-08
 NORM(A)=   0.11807464D+01
 Iteration Nr.  42
 **********************
 DD1Dir will call FoFMem   1 times, MxPair=      1774
 NAB=   598 NAA=   325 NBB=   253.
 DE(Corr)= -0.95254647     E(CORR)=     -3159.3571291     Delta=-1.22D-07
 NORM(A)=   0.11807469D+01
 Iteration Nr.  43
 **********************
 DD1Dir will call FoFMem   1 times, MxPair=      1774
 NAB=   598 NAA=   325 NBB=   253.
 DE(Corr)= -0.95254646     E(CORR)=     -3159.3571291     Delta= 1.04D-08
 NORM(A)=   0.11807472D+01
 Iteration Nr.  44
 **********************
 DD1Dir will call FoFMem   1 times, MxPair=      1774
 NAB=   598 NAA=   325 NBB=   253.
 DE(Corr)= -0.95254647     E(CORR)=     -3159.3571291     Delta=-1.40D-08
 NORM(A)=   0.11807472D+01
 Iteration Nr.  45
 **********************
 DD1Dir will call FoFMem   1 times, MxPair=      1774
 NAB=   598 NAA=   325 NBB=   253.
 DE(Corr)= -0.95254648     E(CORR)=     -3159.3571291     Delta=-2.99D-09
 NORM(A)=   0.11807472D+01
 Iteration Nr.  46
 **********************
 DD1Dir will call FoFMem   1 times, MxPair=      1774
 NAB=   598 NAA=   325 NBB=   253.
 DE(Corr)= -0.95254644     E(CORR)=     -3159.3571291     Delta= 3.26D-08
 NORM(A)=   0.11807470D+01
 Iteration Nr.  47
 **********************
 DD1Dir will call FoFMem   1 times, MxPair=      1774
 NAB=   598 NAA=   325 NBB=   253.
 DE(Corr)= -0.95254646     E(CORR)=     -3159.3571291     Delta=-1.22D-08
 NORM(A)=   0.11807468D+01
 Iteration Nr.  48
 **********************
 DD1Dir will call FoFMem   1 times, MxPair=      1774
 NAB=   598 NAA=   325 NBB=   253.
 DE(Corr)= -0.95254640     E(CORR)=     -3159.3571290     Delta= 5.56D-08
 NORM(A)=   0.11807468D+01
 Iteration Nr.  49
 **********************
 DD1Dir will call FoFMem   1 times, MxPair=      1774
 NAB=   598 NAA=   325 NBB=   253.
 DE(Corr)= -0.95254642     E(CORR)=     -3159.3571290     Delta=-1.89D-08
 NORM(A)=   0.11807468D+01
 Iteration Nr.  50
 **********************
 DD1Dir will call FoFMem   1 times, MxPair=      1774
 NAB=   598 NAA=   325 NBB=   253.
 DE(Corr)= -0.95254641     E(CORR)=     -3159.3571290     Delta= 1.39D-08
 NORM(A)=   0.11807469D+01
 Iteration Nr.  51
 **********************
 DD1Dir will call FoFMem   1 times, MxPair=      1774
 NAB=   598 NAA=   325 NBB=   253.
 DE(Corr)= -0.95254641     E(CORR)=     -3159.3571290     Delta=-7.38D-09
 NORM(A)=   0.11807471D+01
 Iteration Nr.  52
 **********************
 DD1Dir will call FoFMem   1 times, MxPair=      1774
 NAB=   598 NAA=   325 NBB=   253.
 DE(Corr)= -0.95254644     E(CORR)=     -3159.3571291     Delta=-2.59D-08
 NORM(A)=   0.11807474D+01
 Iteration Nr.  53
 **********************
 DD1Dir will call FoFMem   1 times, MxPair=      1774
 NAB=   598 NAA=   325 NBB=   253.
 DE(Corr)= -0.95254644     E(CORR)=     -3159.3571291     Delta= 6.69D-10
 NORM(A)=   0.11807475D+01
 Iteration Nr.  54
 **********************
 DD1Dir will call FoFMem   1 times, MxPair=      1774
 NAB=   598 NAA=   325 NBB=   253.
 DE(Corr)= -0.95254647     E(CORR)=     -3159.3571291     Delta=-2.75D-08
 NORM(A)=   0.11807477D+01
 Iteration Nr.  55
 **********************
 DD1Dir will call FoFMem   1 times, MxPair=      1774
 NAB=   598 NAA=   325 NBB=   253.
 DE(Corr)= -0.95254645     E(CORR)=     -3159.3571291     Delta= 1.82D-08
 NORM(A)=   0.11807478D+01
 Iteration Nr.  56
 **********************
 DD1Dir will call FoFMem   1 times, MxPair=      1774
 NAB=   598 NAA=   325 NBB=   253.
 DE(Corr)= -0.95254646     E(CORR)=     -3159.3571291     Delta=-1.12D-08
 NORM(A)=   0.11807478D+01
 Iteration Nr.  57
 **********************
 DD1Dir will call FoFMem   1 times, MxPair=      1774
 NAB=   598 NAA=   325 NBB=   253.
 DE(Corr)= -0.95254645     E(CORR)=     -3159.3571291     Delta= 3.44D-09
 NORM(A)=   0.11807478D+01
 Largest amplitude= 4.94D-02
 Time for triples=     8059.76 seconds.
 T4(CCSD)= -0.37086085D-01
 T5(CCSD)=  0.16051239D-02
 CCSD(T)= -0.31593926100D+04

 S**2, projected HF & approx projected MPn energies after annihilation of
 unwanted spin states (see manual for definitions):

 spins       (S**2,0) (S**2,1)    PUHF        PMP2        PMP3        PMP4
 annihilated
 s+1         3.74875  3.75046-3158.410282-3159.323822-3159.353102
 s+1,s+2     3.75001  3.74999-3158.410182-3159.323735-3159.353028
 s+1 to s+3  3.75000  3.75000-3158.410183-3159.323735-3159.353028
 s+1 to s+4  3.75000  3.75000-3158.410183-3159.323735-3159.353028
 s+1 to s+5  3.75000  3.75000-3158.410183
 s+1 to s+6  3.75000  3.75000-3158.410183

 Discarding MO integrals.

 **********************************************************************

            Population analysis using the SCF density.

 **********************************************************************

 Orbital symmetries:
 Alpha Orbitals:
       Occupied  (A) (A) (A) (A) (A) (A) (A) (A) (A) (A) (A) (A)
                 (A) (A) (A) (A) (A) (A) (A) (A) (A) (A) (A) (A)
                 (A) (A) (A) (A) (A) (A) (A) (A) (A) (A) (A) (A)
                 (A) (A) (A) (A) (A)
       Virtual   (A) (A) (A) (A) (A) (A) (A) (A) (A) (A) (A) (A)
                 (A) (A) (A) (A) (A) (A) (A) (A) (A) (A) (A) (A)
                 (A) (A) (A) (A) (A) (A) (A) (A) (A) (A) (A) (A)
                 (A) (A) (A) (A) (A) (A) (A) (A) (A) (A) (A) (A)
                 (A) (A) (A) (A) (A) (A) (A) (A) (A) (A) (A) (A)
                 (A) (A) (A) (A) (A) (A) (A) (A) (A) (A) (A) (A)
                 (A) (A) (A) (A) (A) (A) (A) (A) (A) (A) (A) (A)
                 (A) (A) (A) (A) (A) (A) (A) (A) (A) (A) (A) (A)
                 (A) (A) (A) (A) (A) (A) (A) (A) (A) (A) (A) (A)
                 (A) (A) (A) (A) (A) (A) (A) (A)
 Beta  Orbitals:
       Occupied  (A) (A) (A) (A) (A) (A) (A) (A) (A) (A) (A) (A)
                 (A) (A) (A) (A) (A) (A) (A) (A) (A) (A) (A) (A)
                 (A) (A) (A) (A) (A) (A) (A) (A) (A) (A) (A) (A)
                 (A) (A)
       Virtual   (A) (A) (A) (A) (A) (A) (A) (A) (A) (A) (A) (A)
                 (A) (A) (A) (A) (A) (A) (A) (A) (A) (A) (A) (A)
                 (A) (A) (A) (A) (A) (A) (A) (A) (A) (A) (A) (A)
                 (A) (A) (A) (A) (A) (A) (A) (A) (A) (A) (A) (A)
                 (A) (A) (A) (A) (A) (A) (A) (A) (A) (A) (A) (A)
                 (A) (A) (A) (A) (A) (A) (A) (A) (A) (A) (A) (A)
                 (A) (A) (A) (A) (A) (A) (A) (A) (A) (A) (A) (A)
                 (A) (A) (A) (A) (A) (A) (A) (A) (A) (A) (A) (A)
                 (A) (A) (A) (A) (A) (A) (A) (A) (A) (A) (A) (A)
                 (A) (A) (A) (A) (A) (A) (A) (A) (A) (A) (A)
 The electronic state is 4-A.
 Alpha  occ. eigenvalues -- -490.16683-104.97906 -65.30632 -58.66274 -58.66003
 Alpha  occ. eigenvalues --  -58.65987 -26.38642 -10.70383  -9.97982  -8.17831
 Alpha  occ. eigenvalues --   -8.16749  -8.16708  -7.59374  -7.58381  -7.58306
 Alpha  occ. eigenvalues --   -3.33441  -3.33153  -3.33053  -3.32181  -3.32178
 Alpha  occ. eigenvalues --   -1.67317  -1.24801  -1.22699  -1.17788  -1.15499
 Alpha  occ. eigenvalues --   -0.96806  -0.78181  -0.76401  -0.75982  -0.69125
 Alpha  occ. eigenvalues --   -0.67423  -0.66709  -0.64734  -0.63838  -0.61961
 Alpha  occ. eigenvalues --   -0.60893  -0.60737  -0.59351  -0.56604  -0.55934
 Alpha  occ. eigenvalues --   -0.51455
 Alpha virt. eigenvalues --   -0.14391  -0.11864  -0.04208  -0.03118  -0.02586
 Alpha virt. eigenvalues --   -0.02391  -0.01003  -0.00880  -0.00588   0.22550
 Alpha virt. eigenvalues --    0.23122   0.23389   0.24284   0.25293   0.27516
 Alpha virt. eigenvalues --    0.28518   0.31335   0.33387   0.34807   0.35827
 Alpha virt. eigenvalues --    0.37079   0.37597   0.38526   0.39546   0.39909
 Alpha virt. eigenvalues --    0.40017   0.40385   0.41185   0.41941   0.44735
 Alpha virt. eigenvalues --    0.46645   0.47150   0.48309   0.48697   0.50824
 Alpha virt. eigenvalues --    0.52728   0.54776   0.56705   0.58595   0.64016
 Alpha virt. eigenvalues --    0.65356   0.71190   0.72036   0.74897   0.76432
 Alpha virt. eigenvalues --    0.80460   0.82218   0.87354   0.90765   0.92111
 Alpha virt. eigenvalues --    1.02005   1.04429   1.14805   1.24620   1.59546
 Alpha virt. eigenvalues --    1.61560   1.62477   1.63335   1.63417   1.63558
 Alpha virt. eigenvalues --    1.64528   1.69764   1.89206   1.89272   1.90714
 Alpha virt. eigenvalues --    1.91306   1.92878   1.93599   1.94365   1.95928
 Alpha virt. eigenvalues --    2.00256   2.01947   2.05179   2.05650   2.11981
 Alpha virt. eigenvalues --    2.15653   2.16710   2.18581   2.24488   2.25250
 Alpha virt. eigenvalues --    2.27279   2.27468   2.27595   2.29018   2.31208
 Alpha virt. eigenvalues --    2.34992   2.42251   2.47170   2.47681   2.58188
 Alpha virt. eigenvalues --    3.22370   4.84271   5.06020   5.06563   5.08736
 Alpha virt. eigenvalues --    7.25389   7.26032   7.26317   7.27315   7.27354
 Alpha virt. eigenvalues --    7.29452   7.29484   8.49682   8.50439   8.52312
 Alpha virt. eigenvalues --    8.53004   8.58008   8.76204   8.76408   8.78830
 Alpha virt. eigenvalues --    8.79784   8.85792   9.23081  10.76171  11.94035
 Alpha virt. eigenvalues --   13.92517
  Beta  occ. eigenvalues -- -490.16576-104.97376 -65.30580 -58.65978 -58.65977
  Beta  occ. eigenvalues --  -58.65951 -26.37930 -10.69843  -9.97778  -8.16412
  Beta  occ. eigenvalues --   -8.16386  -8.15634  -7.58596  -7.58344  -7.58260
  Beta  occ. eigenvalues --   -3.33171  -3.32940  -3.32838  -3.32178  -3.32175
  Beta  occ. eigenvalues --   -1.65088  -1.20023  -1.13823  -1.12390  -1.07523
  Beta  occ. eigenvalues --   -0.92830  -0.75462  -0.75392  -0.71713  -0.65213
  Beta  occ. eigenvalues --   -0.63589  -0.59767  -0.59375  -0.57904  -0.56790
  Beta  occ. eigenvalues --   -0.55871  -0.55662  -0.53397
  Beta virt. eigenvalues --   -0.26317  -0.26071  -0.25349  -0.12434  -0.09574
  Beta virt. eigenvalues --   -0.02964  -0.02035  -0.01505  -0.00916  -0.00474
  Beta virt. eigenvalues --   -0.00314   0.00211   0.23867   0.24807   0.25239
  Beta virt. eigenvalues --    0.26337   0.26707   0.28281   0.29171   0.33635
  Beta virt. eigenvalues --    0.35641   0.37874   0.38761   0.39013   0.40672
  Beta virt. eigenvalues --    0.41488   0.41555   0.43755   0.44211   0.44506
  Beta virt. eigenvalues --    0.46476   0.46680   0.48048   0.48482   0.48960
  Beta virt. eigenvalues --    0.50446   0.51482   0.52461   0.54676   0.57915
  Beta virt. eigenvalues --    0.60135   0.60377   0.66043   0.67161   0.73019
  Beta virt. eigenvalues --    0.74394   0.76401   0.79273   0.82005   0.83535
  Beta virt. eigenvalues --    0.88693   0.92012   0.93174   1.02422   1.05036
  Beta virt. eigenvalues --    1.15589   1.25811   1.60576   1.62386   1.63256
  Beta virt. eigenvalues --    1.63538   1.63628   1.64521   1.65788   1.70768
  Beta virt. eigenvalues --    1.89529   1.89777   1.91039   1.91375   1.93381
  Beta virt. eigenvalues --    1.94583   1.94698   1.97416   2.01404   2.02836
  Beta virt. eigenvalues --    2.06514   2.07250   2.13270   2.15755   2.16925
  Beta virt. eigenvalues --    2.19758   2.26012   2.26820   2.27408   2.27605
  Beta virt. eigenvalues --    2.28941   2.30717   2.32848   2.36967   2.43979
  Beta virt. eigenvalues --    2.47695   2.48274   2.60395   3.22709   4.85082
  Beta virt. eigenvalues --    5.06466   5.07192   5.10805   7.26296   7.26867
  Beta virt. eigenvalues --    7.27149   7.27890   7.27926   7.29562   7.29595
  Beta virt. eigenvalues --    8.49923   8.50571   8.52890   8.53522   8.58759
  Beta virt. eigenvalues --    8.76606   8.76836   8.80392   8.81290   8.87870
  Beta virt. eigenvalues --    9.23903  10.76815  11.94557  13.93209
          Condensed to atoms (all electrons):
               1          2          3          4          5          6
     1  Bi   3.408537   0.045448   0.005636   0.102384  -0.017490  -0.010588
     2  F    0.045448   9.645159   0.000965  -0.020585  -0.008809  -0.008284
     3  Cl   0.005636   0.000965  17.427067  -0.027277  -0.006847  -0.007431
     4  Br   0.102384  -0.020585  -0.027277  35.186214   0.003435   0.003412
     5  I   -0.017490  -0.008809  -0.006847   0.003435   6.648212   0.005288
     6  At  -0.010588  -0.008284  -0.007431   0.003412   0.005288   6.566293
          Atomic-Atomic Spin Densities.
               1          2          3          4          5          6
     1  Bi   0.629662  -0.077168  -0.191454  -0.121723  -0.159443  -0.168654
     2  F   -0.077168   0.147622   0.000470   0.008708   0.006479   0.007122
     3  Cl  -0.191454   0.000470   0.532230   0.016943   0.010967   0.013129
     4  Br  -0.121723   0.008708   0.016943   0.321654   0.006277   0.006696
     5  I   -0.159443   0.006479   0.010967   0.006277   1.283939   0.005709
     6  At  -0.168654   0.007122   0.013129   0.006696   0.005709   1.356776
 Mulliken charges and spin densities:
               1          2
     1  Bi   1.466073  -0.088779
     2  F   -0.653894   0.093232
     3  Cl  -0.392114   0.382286
     4  Br  -0.247584   0.238555
     5  I    0.376211   1.153928
     6  At   0.451308   1.220778
 Sum of Mulliken charges =   1.00000   3.00000
 Mulliken charges and spin densities with hydrogens summed into heavy atoms:
               1          2
     1  Bi   1.466073  -0.088779
     2  F   -0.653894   0.093232
     3  Cl  -0.392114   0.382286
     4  Br  -0.247584   0.238555
     5  I    0.376211   1.153928
     6  At   0.451308   1.220778
 Electronic spatial extent (au):  <R**2>=           2205.8540
 Charge=              1.0000 electrons
 Dipole moment (field-independent basis, Debye):
    X=             -0.7195    Y=             -5.1696    Z=              0.6010  Tot=              5.2539
 Quadrupole moment (field-independent basis, Debye-Ang):
   XX=            -58.5048   YY=            -84.2715   ZZ=           -100.2900
   XY=             -6.4471   XZ=             -0.1570   YZ=              0.7512
 Traceless Quadrupole moment (field-independent basis, Debye-Ang):
   XX=             22.5173   YY=             -3.2494   ZZ=            -19.2679
   XY=             -6.4471   XZ=             -0.1570   YZ=              0.7512
 Octapole moment (field-independent basis, Debye-Ang**2):
  XXX=            -98.3952  YYY=            -59.5816  ZZZ=            -28.7024  XYY=             -8.0953
  XXY=            -58.8047  XXZ=            -19.2601  XZZ=            -34.5830  YZZ=            -29.2223
  YYZ=            -16.2436  XYZ=              1.2468
 Hexadecapole moment (field-independent basis, Debye-Ang**3):
 XXXX=          -1455.5731 YYYY=          -1229.5276 ZZZZ=           -798.6611 XXXY=            -58.6496
 XXXZ=            -13.8527 YYYX=            -22.7766 YYYZ=            -10.5266 ZZZX=             -7.4122
 ZZZY=              4.3479 XXYY=           -444.3299 XXZZ=           -376.5745 YYZZ=           -342.5297
 XXYZ=              3.2349 YYXZ=             -9.2403 ZZXY=            -14.4929
 N-N= 3.434458616690D+02 E-N=-8.216677085938D+03  KE= 3.139504403727D+03
 1\1\GINC-GAMBA\SP\UCCSD(T)-FC\Gen\At1Bi1Br1Cl1F1I1(1+,4)\IRIKURA\19-Ma
 y-2017\0\\# CCSD(T,maxcyc=100)/GEN gfinput geom=check scf=xqc pseudo=r
 ead guess=check\\BEB step 7: high-spin CCSD(T) for cation of BiFClBrIA
 t\\1,4\Bi,0,-0.9365127913,0.6634957207,-0.0229682709\F,0,-0.9148015666
 ,0.6506383511,2.0117615586\Cl,0,-0.9482875525,0.673187048,-2.588873547
 3\Br,0,-2.2655976762,2.8869666536,0.0529192917\I,0,-2.4412175827,-1.73
 33450332,0.0647936077\At,0,1.9930976294,0.7281258298,0.0723673602\\Ver
 sion=ES64L-G09RevD.01\State=4-A\HF=-3158.4045826\MP2=-3159.3199828\MP3
 =-3159.3508908\MP4D=-3159.3702205\MP4DQ=-3159.350292\PUHF=-3158.410281
 6\PMP2-0=-3159.3238215\PMP3-0=-3159.3531024\MP4SDQ=-3159.3595267\CCSD=
 -3159.3571291\CCSD(T)=-3159.39261\S2=3.813921\S2-1=3.771374\S2A=3.7517
 75\RMSD=2.247e-05\PG=C01 [X(At1Bi1Br1Cl1F1I1)]\\@


 OF ALL THE WONDERS OF THE UNIVERSE, THE GREATEST IS MAN.

                                    -- ARISTOTLE
 Job cpu time:       0 days 11 hours  2 minutes 37.3 seconds.
 File lengths (MBytes):  RWF=   8901 Int=      0 D2E=      0 Chk=      4 Scr=      1
 Normal termination of Gaussian 09 at Fri May 19 17:27:21 2017.
