 Entering Gaussian System, Link 0=g09
 AtFile(1): t_plusd.gbs
            -Al     0
            S   13   1.00
             205500.0000000              0.678836D-04
              30780.0000000              0.527149D-03
               7006.0000000              0.276203D-02
               1985.0000000              0.114728D-01
                649.1000000              0.398188D-01
                235.0000000              0.115040D+00
                 91.6200000              0.260887D+00
                 37.6700000              0.396386D+00
                 15.9100000              0.284597D+00
                  5.8500000              0.444583D-01
                  2.5420000             -0.489838D-02
                  1.0570000              0.261253D-02
                  0.1455000              0.722068D-03
            S   13   1.00
             205500.0000000             -0.176377D-04
              30780.0000000             -0.137195D-03
               7006.0000000             -0.718910D-03
               1985.0000000             -0.301146D-02
                649.1000000             -0.106014D-01
                235.0000000             -0.321345D-01
                 91.6200000             -0.803156D-01
                 37.6700000             -0.156794D+00
                 15.9100000             -0.168376D+00
                  5.8500000              0.126879D+00
                  2.5420000              0.561494D+00
                  1.0570000              0.436613D+00
                  0.1455000             -0.114563D-01
            S   13   1.00
             205500.0000000              0.407315D-05
              30780.0000000              0.316566D-04
               7006.0000000              0.166116D-03
               1985.0000000              0.694992D-03
                649.1000000              0.245511D-02
                235.0000000              0.744598D-02
                 91.6200000              0.188253D-01
                 37.6700000              0.372772D-01
                 15.9100000              0.419496D-01
                  5.8500000             -0.354375D-01
                  2.5420000             -0.175132D+00
                  1.0570000             -0.276203D+00
                  0.1455000              0.652809D+00
            S   1   1.00
                  0.2931000              1.0000000
            S   1   1.00
                  0.0565000              1.0000000
            P   7   1.00
                444.4000000              0.162786D-02
                105.1000000              0.130687D-01
                 33.4700000              0.612341D-01
                 12.3300000              0.187870D+00
                  4.8690000              0.360452D+00
                  1.9610000              0.408454D+00
                  0.1888000              0.976514D-02
            P   7   1.00
                444.4000000             -0.286341D-03
                105.1000000             -0.242308D-02
                 33.4700000             -0.108658D-01
                 12.3300000             -0.364307D-01
                  4.8690000             -0.641074D-01
                  1.9610000             -0.972239D-01
                  0.1888000              0.503448D+00
            P   1   1.00
                  0.7834000              1.0000000
            P   1   1.00
                  0.0555700              1.0000000
            D   1   1.00
                  1.5700000              1.0000000
            D   1   1.00
                  0.3330000              1.0000000
            D   1   1.00
                  0.1110000              1.0000000
            F   1   1.00
                  0.2440000              1.0000000
            ****
            -Si     0
            S   13   1.00
             254900.0000000              0.625101D-04
              38190.0000000              0.485553D-03
               8690.0000000              0.254516D-02
               2462.0000000              0.105866D-01
                804.8000000              0.368787D-01
                291.3000000              0.107479D+00
                113.6000000              0.247936D+00
                 46.7500000              0.390927D+00
                 19.8200000              0.302026D+00
                  7.7080000              0.559236D-01
                  3.3400000             -0.402406D-02
                  1.4020000              0.258030D-02
                  0.2070000              0.607930D-03
            S   13   1.00
             254900.0000000             -0.166370D-04
              38190.0000000             -0.129310D-03
               8690.0000000             -0.678828D-03
               2462.0000000             -0.284117D-02
                804.8000000             -0.100551D-01
                291.3000000             -0.305774D-01
                113.6000000             -0.777256D-01
                 46.7500000             -0.154236D+00
                 19.8200000             -0.180368D+00
                  7.7080000              0.798218D-01
                  3.3400000              0.547441D+00
                  1.4020000              0.480119D+00
                  0.2070000             -0.106996D-01
            S   13   1.00
             254900.0000000              0.426257D-05
              38190.0000000              0.331062D-04
               8690.0000000              0.174015D-03
               2462.0000000              0.727574D-03
                804.8000000              0.258333D-02
                291.3000000              0.786354D-02
                113.6000000              0.202155D-01
                 46.7500000              0.407320D-01
                 19.8200000              0.499358D-01
                  7.7080000             -0.249396D-01
                  3.3400000             -0.190350D+00
                  1.4020000             -0.318350D+00
                  0.2070000              0.681180D+00
            S   1   1.00
                  0.4387000              1.0000000
            S   1   1.00
                  0.0794400              1.0000000
            P   7   1.00
                481.5000000              0.192045D-02
                113.9000000              0.153552D-01
                 36.2300000              0.713991D-01
                 13.3400000              0.213052D+00
                  5.2520000              0.390354D+00
                  2.1200000              0.393721D+00
                  0.2528000              0.395630D-02
            P   7   1.00
                481.5000000             -0.405220D-03
                113.9000000             -0.335896D-02
                 36.2300000             -0.152860D-01
                 13.3400000             -0.489218D-01
                  5.2520000             -0.855008D-01
                  2.1200000             -0.112137D+00
                  0.2528000              0.551919D+00
            P   1   1.00
                  0.8561000              1.0000000
            P   1   1.00
                  0.0788900              1.0000000
            D   1   1.00
                  2.3030000              1.0000000
            D   1   1.00
                  0.4760000              1.0000000
            D   1   1.00
                  0.1600000              1.0000000
            F   1   1.00
                  0.3360000              1.0000000
            ****
            -P     0
            S   13   1.00
             312400.0000000              0.576960D-04
              46800.0000000              0.448296D-03
              10650.0000000              0.234939D-02
               3018.0000000              0.978265D-02
                986.8000000              0.341467D-01
                357.4000000              0.100204D+00
                139.6000000              0.234372D+00
                 57.6300000              0.382434D+00
                 24.6000000              0.318088D+00
                 10.1200000              0.707788D-01
                  4.2830000             -0.181799D-02
                  1.8050000              0.216180D-02
                  0.2782000              0.432297D-03
            S   13   1.00
             312400.0000000             -0.156709D-04
              46800.0000000             -0.121724D-03
              10650.0000000             -0.639672D-03
               3018.0000000             -0.267426D-02
                986.8000000             -0.949831D-02
                357.4000000             -0.289349D-01
                139.6000000             -0.745121D-01
                 57.6300000             -0.149938D+00
                 24.6000000             -0.189467D+00
                 10.1200000              0.363270D-01
                  4.2830000              0.528816D+00
                  1.8050000              0.519115D+00
                  0.2782000             -0.925695D-02
            S   13   1.00
             312400.0000000              0.430631D-05
              46800.0000000              0.334194D-04
              10650.0000000              0.175885D-03
               3018.0000000              0.734340D-03
                986.8000000              0.261775D-02
                357.4000000              0.797852D-02
                139.6000000              0.207940D-01
                 57.6300000              0.424446D-01
                 24.6000000              0.563436D-01
                 10.1200000             -0.127358D-01
                  4.2830000             -0.196495D+00
                  1.8050000             -0.353555D+00
                  0.2782000              0.700912D+00
            S   1   1.00
                  0.6158000              1.0000000
            S   1   1.00
                  0.1055000              1.0000000
            P   7   1.00
                504.9000000              0.233728D-02
                119.4000000              0.185410D-01
                 37.9600000              0.849693D-01
                 13.9500000              0.244615D+00
                  5.4570000              0.422766D+00
                  2.1770000              0.368439D+00
                  0.2877000             -0.379005D-02
            P   7   1.00
                504.9000000             -0.555236D-03
                119.4000000             -0.445913D-02
                 37.9600000             -0.206350D-01
                 13.9500000             -0.617694D-01
                  5.4570000             -0.108924D+00
                  2.1770000             -0.105599D+00
                  0.2877000              0.576981D+00
            P   1   1.00
                  0.8010000              1.0000000
            P   1   1.00
                  0.0971400              1.0000000
            D   1   1.00
                  3.1200000              1.0000000
            D   1   1.00
                  0.6480000              1.0000000
            D   1   1.00
                  0.2180000              1.0000000
            F   1   1.00
                  0.4520000              1.0000000
            ****
            -S     0
            S   13   1.00
             374100.0000000              0.542140D-04
              56050.0000000              0.420855D-03
              12760.0000000              0.220698D-02
               3615.0000000              0.919258D-02
               1183.0000000              0.321123D-01
                428.8000000              0.946683D-01
                167.8000000              0.223630D+00
                 69.4700000              0.374393D+00
                 29.8400000              0.329108D+00
                 12.7200000              0.847038D-01
                  5.2440000              0.440851D-03
                  2.2190000              0.164827D-02
                  0.3490000              0.301306D-03
            S   13   1.00
             374100.0000000             -0.149837D-04
              56050.0000000             -0.116198D-03
              12760.0000000             -0.611583D-03
               3615.0000000             -0.255370D-02
               1183.0000000             -0.908708D-02
                428.8000000             -0.277045D-01
                167.8000000             -0.720020D-01
                 69.4700000             -0.146439D+00
                 29.8400000             -0.195150D+00
                 12.7200000              0.819193D-02
                  5.2440000              0.516601D+00
                  2.2190000              0.542178D+00
                  0.3490000             -0.918072D-02
            S   13   1.00
             374100.0000000              0.435066D-05
              56050.0000000              0.337140D-04
              12760.0000000              0.177674D-03
               3615.0000000              0.741116D-03
               1183.0000000              0.264591D-02
                428.8000000              0.807487D-02
                167.8000000              0.212276D-01
                 69.4700000              0.438323D-01
                 29.8400000              0.612716D-01
                 12.7200000             -0.361510D-02
                  5.2440000             -0.204510D+00
                  2.2190000             -0.381871D+00
                  0.3490000              0.714147D+00
            S   1   1.00
                  0.7767000              1.0000000
            S   1   1.00
                  0.1322000              1.0000000
            P   7   1.00
                574.4000000              0.242264D-02
                135.8000000              0.192796D-01
                 43.1900000              0.885401D-01
                 15.8700000              0.254654D+00
                  6.2080000              0.433984D+00
                  2.4830000              0.354953D+00
                  0.3229000             -0.502977D-02
            P   7   1.00
                574.4000000             -0.620102D-03
                135.8000000             -0.493882D-02
                 43.1900000             -0.232647D-01
                 15.8700000             -0.685195D-01
                  6.2080000             -0.123896D+00
                  2.4830000             -0.969499D-01
                  0.3229000              0.569394D+00
            P   1   1.00
                  0.8688000              1.0000000
            P   1   1.00
                  0.1098000              1.0000000
            D   1   1.00
                  3.7560000              1.0000000
            D   1   1.00
                  0.8120000              1.0000000
            D   1   1.00
                  0.2730000              1.0000000
            F   1   1.00
                  0.5570000              1.0000000
            ****
            -Cl     0
            S   13   1.00
             456100.0000000              0.492970D-04
              68330.0000000              0.383029D-03
              15550.0000000              0.200854D-02
               4405.0000000              0.838558D-02
               1439.0000000              0.294703D-01
                520.4000000              0.878325D-01
                203.1000000              0.211473D+00
                 83.9600000              0.365364D+00
                 36.2000000              0.340884D+00
                 15.8300000              0.102133D+00
                  6.3340000              0.311675D-02
                  2.6940000              0.105751D-02
                  0.4313000              0.156136D-03
            S   13   1.00
             456100.0000000             -0.138304D-04
              68330.0000000             -0.107279D-03
              15550.0000000             -0.565083D-03
               4405.0000000             -0.236135D-02
               1439.0000000             -0.845886D-02
                520.4000000             -0.259638D-01
                203.1000000             -0.686362D-01
                 83.9600000             -0.141874D+00
                 36.2000000             -0.199319D+00
                 15.8300000             -0.195662D-01
                  6.3340000              0.499741D+00
                  2.6940000              0.563736D+00
                  0.4313000             -0.835091D-02
            S   13   1.00
             456100.0000000              0.418546D-05
              68330.0000000              0.324395D-04
              15550.0000000              0.171105D-03
               4405.0000000              0.714176D-03
               1439.0000000              0.256705D-02
                520.4000000              0.788552D-02
                203.1000000              0.210867D-01
                 83.9600000              0.442264D-01
                 36.2000000              0.651670D-01
                 15.8300000              0.603012D-02
                  6.3340000             -0.206495D+00
                  2.6940000             -0.405871D+00
                  0.4313000              0.725661D+00
            S   1   1.00
                  0.9768000              1.0000000
            S   1   1.00
                  0.1625000              1.0000000
            P   7   1.00
                663.3000000              0.240448D-02
                156.8000000              0.192148D-01
                 49.9800000              0.885097D-01
                 18.4200000              0.256020D+00
                  7.2400000              0.436927D+00
                  2.9220000              0.350334D+00
                  0.3818000             -0.458423D-02
            P   7   1.00
                663.3000000             -0.652145D-03
                156.8000000             -0.519445D-02
                 49.9800000             -0.246938D-01
                 18.4200000             -0.728167D-01
                  7.2400000             -0.134030D+00
                  2.9220000             -0.947742D-01
                  0.3818000              0.564667D+00
            P   1   1.00
                  1.0220000              1.0000000
            P   1   1.00
                  0.1301000              1.0000000
            D   1   1.00
                  4.6100000              1.0000000
            D   1   1.00
                  1.0110000              1.0000000
            D   1   1.00
                  0.3390000              1.0000000
            F   1   1.00
                  0.7060000              1.0000000
            ****
            -Ar     0
            S   13   1.00
             545000.0000000              0.455828D-04
              81640.0000000              0.354108D-03
              18580.0000000              0.185797D-02
               5261.0000000              0.776851D-02
               1717.0000000              0.274232D-01
                619.9000000              0.823836D-01
                241.6000000              0.201230D+00
                 99.7900000              0.356781D+00
                 43.1500000              0.349563D+00
                 19.1400000              0.118266D+00
                  7.4880000              0.560190D-02
                  3.2050000              0.483473D-03
                  0.5204000              0.292025D-04
            S   13   1.00
             545000.0000000             -0.129551D-04
              81640.0000000             -0.100428D-03
              18580.0000000             -0.529583D-03
               5261.0000000             -0.221396D-02
               1717.0000000             -0.796845D-02
                619.9000000             -0.245803D-01
                241.6000000             -0.657798D-01
                 99.7900000             -0.137942D+00
                 43.1500000             -0.201630D+00
                 19.1400000             -0.412834D-01
                  7.4880000              0.484680D+00
                  3.2050000              0.579224D+00
                  0.5204000             -0.727553D-02
            S   13   1.00
             545000.0000000              0.404990D-05
              81640.0000000              0.313691D-04
              18580.0000000              0.165646D-03
               5261.0000000              0.691662D-03
               1717.0000000              0.249790D-02
                619.9000000              0.771074D-02
                241.6000000              0.208714D-01
                 99.7900000              0.443965D-01
                 43.1500000              0.680224D-01
                 19.1400000              0.141350D-01
                  7.4880000             -0.207489D+00
                  3.2050000             -0.425045D+00
                  0.5204000              0.733627D+00
            S   1   1.00
                  1.1960000              1.0000000
            S   1   1.00
                  0.1954000              1.0000000
            P   7   1.00
                761.8000000              0.236976D-02
                180.2000000              0.190199D-01
                 57.5000000              0.880807D-01
                 21.2400000              0.256377D+00
                  8.3880000              0.438711D+00
                  3.4160000              0.347569D+00
                  0.4523000             -0.523882D-02
            P   7   1.00
                761.8000000             -0.667211D-03
                180.2000000             -0.532717D-02
                 57.5000000             -0.255494D-01
                 21.2400000             -0.757197D-01
                  8.3880000             -0.141133D+00
                  3.4160000             -0.932768D-01
                  0.4523000              0.562450D+00
            P   1   1.00
                  1.2060000              1.0000000
            P   1   1.00
                  0.1545000              1.0000000
            D   1   1.00
                  5.5510000              1.0000000
            D   1   1.00
                  1.2350000              1.0000000
            D   1   1.00
                  0.4120000              1.0000000
            F   1   1.00
                  0.8900000              1.0000000
            ****
 Initial command:
 /usr/local/apps/g09/l1.exe "/wrk/irikura/Gau-444.inp" -scrdir="/wrk/irikura/"
 Entering Link 1 = /usr/local/apps/g09/l1.exe PID=       446.
  
 Copyright (c) 1988,1990,1992,1993,1995,1998,2003,2009,2013,
            Gaussian, Inc.  All Rights Reserved.
  
 This is part of the Gaussian(R) 09 program.  It is based on
 the Gaussian(R) 03 system (copyright 2003, Gaussian, Inc.),
 the Gaussian(R) 98 system (copyright 1998, Gaussian, Inc.),
 the Gaussian(R) 94 system (copyright 1995, Gaussian, Inc.),
 the Gaussian 92(TM) system (copyright 1992, Gaussian, Inc.),
 the Gaussian 90(TM) system (copyright 1990, Gaussian, Inc.),
 the Gaussian 88(TM) system (copyright 1988, Gaussian, Inc.),
 the Gaussian 86(TM) system (copyright 1986, Carnegie Mellon
 University), and the Gaussian 82(TM) system (copyright 1983,
 Carnegie Mellon University). Gaussian is a federally registered
 trademark of Gaussian, Inc.
  
 This software contains proprietary and confidential information,
 including trade secrets, belonging to Gaussian, Inc.
  
 This software is provided under written license and may be
 used, copied, transmitted, or stored only in accord with that
 written license.
  
 The following legend is applicable only to US Government
 contracts under FAR:
  
                    RESTRICTED RIGHTS LEGEND
  
 Use, reproduction and disclosure by the US Government is
 subject to restrictions as set forth in subparagraphs (a)
 and (c) of the Commercial Computer Software - Restricted
 Rights clause in FAR 52.227-19.
  
 Gaussian, Inc.
 340 Quinnipiac St., Bldg. 40, Wallingford CT 06492
  
  
 ---------------------------------------------------------------
 Warning -- This program may not be used in any manner that
 competes with the business of Gaussian, Inc. or will provide
 assistance to any competitor of Gaussian, Inc.  The licensee
 of this program is prohibited from giving any competitor of
 Gaussian, Inc. access to this program.  By using this program,
 the user acknowledges that Gaussian, Inc. is engaged in the
 business of creating and licensing software in the field of
 computational chemistry and represents and warrants to the
 licensee that it is not a competitor of Gaussian, Inc. and that
 it will not use this program in any manner prohibited above.
 ---------------------------------------------------------------
  

 Cite this work as:
 Gaussian 09, Revision D.01,
 M. J. Frisch, G. W. Trucks, H. B. Schlegel, G. E. Scuseria, 
 M. A. Robb, J. R. Cheeseman, G. Scalmani, V. Barone, B. Mennucci, 
 G. A. Petersson, H. Nakatsuji, M. Caricato, X. Li, H. P. Hratchian, 
 A. F. Izmaylov, J. Bloino, G. Zheng, J. L. Sonnenberg, M. Hada, 
 M. Ehara, K. Toyota, R. Fukuda, J. Hasegawa, M. Ishida, T. Nakajima, 
 Y. Honda, O. Kitao, H. Nakai, T. Vreven, J. A. Montgomery, Jr., 
 J. E. Peralta, F. Ogliaro, M. Bearpark, J. J. Heyd, E. Brothers, 
 K. N. Kudin, V. N. Staroverov, T. Keith, R. Kobayashi, J. Normand, 
 K. Raghavachari, A. Rendell, J. C. Burant, S. S. Iyengar, J. Tomasi, 
 M. Cossi, N. Rega, J. M. Millam, M. Klene, J. E. Knox, J. B. Cross, 
 V. Bakken, C. Adamo, J. Jaramillo, R. Gomperts, R. E. Stratmann, 
 O. Yazyev, A. J. Austin, R. Cammi, C. Pomelli, J. W. Ochterski, 
 R. L. Martin, K. Morokuma, V. G. Zakrzewski, G. A. Voth, 
 P. Salvador, J. J. Dannenberg, S. Dapprich, A. D. Daniels, 
 O. Farkas, J. B. Foresman, J. V. Ortiz, J. Cioslowski, 
 and D. J. Fox, Gaussian, Inc., Wallingford CT, 2013.
 
 ******************************************
 Gaussian 09:  ES64L-G09RevD.01 24-Apr-2013
                19-May-2017 
 ******************************************
 %chk=BiFClBrIAt.chk
 %nprocs=8
 Will use up to    8 processors via shared memory.
 %mem=2000mw
 ----------------------------------------------------------------------
 # CCSD(T,maxcyc=100)/GEN gfinput geom=check scf=xqc pseudo=read guess=
 check
 ----------------------------------------------------------------------
 1/29=2,38=1/1;
 2/12=2,40=1/2;
 3/5=7,11=9,14=-4,16=1,17=8,24=10,25=1,30=1,116=-2/1,2,3;
 4/5=1/1;
 5/5=2,8=3,13=1,38=6/2,8;
 8/6=4,9=120000,10=1/1,4;
 9/5=7,6=100,14=2/13;
 6/7=2,8=2,9=2,10=2/1;
 99/5=1,9=1/99;
 --------------------------------------------------------
 BEB step 9: high-spin CCSD(T) for dication of BiFClBrIAt
 --------------------------------------------------------
 Structure from the checkpoint file:  "BiFClBrIAt.chk"
 Charge =  2 Multiplicity = 3
 Redundant internal coordinates found in file.
 Bi,0,-0.9365127913,0.6634957207,-0.0229682709
 F,0,-0.9148015666,0.6506383511,2.0117615586
 Cl,0,-0.9482875525,0.673187048,-2.5888735473
 Br,0,-2.2655976762,2.8869666536,0.0529192917
 I,0,-2.4412175827,-1.7333450332,0.0647936077
 At,0,1.9930976294,0.7281258298,0.0723673602
 Recover connectivity data from disk.
                          Input orientation:                          
 ---------------------------------------------------------------------
 Center     Atomic      Atomic             Coordinates (Angstroms)
 Number     Number       Type             X           Y           Z
 ---------------------------------------------------------------------
      1         83           0       -0.936513    0.663496   -0.022968
      2          9           0       -0.914802    0.650638    2.011762
      3         17           0       -0.948288    0.673187   -2.588874
      4         35           0       -2.265598    2.886967    0.052919
      5         53           0       -2.441218   -1.733345    0.064794
      6         85           0        1.993098    0.728126    0.072367
 ---------------------------------------------------------------------
                    Distance matrix (angstroms):
                    1          2          3          4          5
     1  Bi   0.000000
     2  F    2.034886   0.000000
     3  Cl   2.565951   4.600812   0.000000
     4  Br   2.591534   3.265406   3.689877   0.000000
     5  I    2.831375   3.435696   3.881003   4.623663   0.000000
     6  At   2.931874   3.496160   3.966985   4.774668   5.071691
                    6
     6  At   0.000000
 Stoichiometry    AtBiBrClFI(2+,3)
 Framework group  C1[X(AtBiBrClFI)]
 Deg. of freedom    12
 Full point group                 C1      NOp   1
 Largest Abelian subgroup         C1      NOp   1
 Largest concise Abelian subgroup C1      NOp   1
                         Standard orientation:                         
 ---------------------------------------------------------------------
 Center     Atomic      Atomic             Coordinates (Angstroms)
 Number     Number       Type             X           Y           Z
 ---------------------------------------------------------------------
      1         83           0        0.374064    0.267985   -0.054105
      2          9           0        0.313649    0.165948   -2.085534
      3         17           0        0.437083    0.386067    2.508352
      4         35           0        1.029333    2.767885   -0.246893
      5         53           0        2.484600   -1.618625   -0.109103
      6         85           0       -2.458953   -0.486921   -0.058326
 ---------------------------------------------------------------------
 Rotational constants (GHZ):      0.3835675      0.2029668      0.1585664
 General basis read from cards:  (5D, 7F)
 ======================================================================================================
                                       Pseudopotential Parameters
 ======================================================================================================
  Center     Atomic      Valence      Angular      Power
  Number     Number     Electrons     Momentum     of R      Exponent        Coefficient   SO-Coeffient
 ======================================================================================================
    1         83            5
                                      H and up 
                                                     2        1.0000000        0.00000000    0.00000000
                                      S - H
                                                     2        0.1611520       -0.16198800    0.00000000
                                                     2        1.5098350       14.03169000    0.00000000
                                                     2       10.0000000      122.04740100    0.00000000
                                      P - H
                                                     2        0.7604900       -6.18852600    0.00000000
                                                     2        1.4264150       51.04586800    0.00000000
                                      D - H
                                                     2        0.7802260       20.53580400    0.00000000
                                                     2        0.2600750       -0.13619600    0.00000000
                                      F - H
                                                     2        0.9736080       -6.41422600    0.00000000
                                      G - H
                                                     2        1.0881950       -6.65606400    0.00000000
    2          9
                                   No pseudopotential on this center.
    3         17
                                   No pseudopotential on this center.
    4         35
                                   No pseudopotential on this center.
    5         53            7
                                      G and up 
                                                     2        1.0000000        0.00000000    0.00000000
                                      S - G
                                                     2        3.5112000       83.11386300    0.00000000
                                                     2        1.7556000        5.20187600    0.00000000
                                      P - G
                                                     2        2.9688000       82.81110900    0.00000000
                                                     2        1.4844000        3.37968200    0.00000000
                                      D - G
                                                     2        1.9066000       10.30427700    0.00000000
                                                     2        0.9533000        7.58803200    0.00000000
                                      F - G
                                                     2        2.3075000      -21.47793600    0.00000000
    6         85            7
                                      H and up 
                                                     2        1.0000000        0.00000000    0.00000000
                                      S - H
                                                     2        0.9223860       -5.52846100    0.00000000
                                                     2        1.7819150       39.56886900    0.00000000
                                                     2       10.0000000      170.71138600    0.00000000
                                      P - H
                                                     2        0.7242910       -2.29538700    0.00000000
                                                     2        1.3638600       25.49292000    0.00000000
                                      D - H
                                                     2        0.6359720        4.86510700    0.00000000
                                                     2        1.2719430       14.57941300    0.00000000
                                      F - H
                                                     2        1.1541080       -6.85786700    0.00000000
                                      G - H
                                                     2        1.3451150       -7.61303900    0.00000000
 ======================================================================================================
 AO basis set in the form of general basis input (Overlap normalization):
      1 0
 S   3 1.00       0.000000000000
      0.1425388000D+01  0.1551577849D+00
      0.9849140000D+00 -0.9337229251D+00
      0.2525140000D+00  0.1433392723D+01
 S   1 1.00       0.000000000000
      0.1006190000D+00  0.1000000000D+01
 P   3 1.00       0.000000000000
      0.1517283000D+01  0.5994662445D+00
      0.1253307000D+01 -0.8875967497D+00
      0.2079490000D+00  0.1121281412D+01
 P   1 1.00       0.000000000000
      0.6943300000D-01  0.1000000000D+01
 D   1 1.00       0.000000000000
      0.1700000000D+00  0.1000000000D+01
 ****
      2 0
 S   7 1.00       0.000000000000
      0.1950000000D+05  0.5190024441D-03
      0.2923000000D+04  0.4015781354D-02
      0.6645000000D+03  0.2067746110D-01
      0.1875000000D+03  0.8086901703D-01
      0.6062000000D+02  0.2358075463D+00
      0.2142000000D+02  0.4425823060D+00
      0.7950000000D+01  0.3569628672D+00
 S   6 1.00       0.000000000000
      0.6645000000D+03 -0.3735980873D-04
      0.1875000000D+03 -0.1277472297D-02
      0.6062000000D+02 -0.1082201399D-01
      0.2142000000D+02 -0.7004820894D-01
      0.7950000000D+01 -0.1697466078D+00
      0.8815000000D+00  0.1073026608D+01
 S   1 1.00       0.000000000000
      0.2257000000D+01  0.1000000000D+01
 S   1 1.00       0.000000000000
      0.3041000000D+00  0.1000000000D+01
 P   3 1.00       0.000000000000
      0.4388000000D+02  0.4190462069D-01
      0.9926000000D+01  0.2626978417D+00
      0.2930000000D+01  0.7977593735D+00
 P   1 1.00       0.000000000000
      0.9132000000D+00  0.1000000000D+01
 P   1 1.00       0.000000000000
      0.2672000000D+00  0.1000000000D+01
 D   1 1.00       0.000000000000
      0.3107000000D+01  0.1000000000D+01
 D   1 1.00       0.000000000000
      0.8550000000D+00  0.1000000000D+01
 F   1 1.00       0.000000000000
      0.1917000000D+01  0.1000000000D+01
 ****
      3 0
 S  11 1.00       0.000000000000
      0.4561000000D+06  0.4931994985D-04
      0.6833000000D+05  0.3832069654D-03
      0.1555000000D+05  0.2009478163D-02
      0.4405000000D+04  0.8389501239D-02
      0.1439000000D+04  0.2948439504D-01
      0.5204000000D+03  0.8787599478D-01
      0.2031000000D+03  0.2115897588D+00
      0.8396000000D+02  0.3656115542D+00
      0.3620000000D+02  0.3412463495D+00
      0.1583000000D+02  0.1021625703D+00
      0.6334000000D+01  0.2142500341D-02
 S   9 1.00       0.000000000000
      0.4405000000D+04 -0.2204447291D-05
      0.1439000000D+04 -0.1711436735D-03
      0.5204000000D+03 -0.1279090931D-02
      0.2031000000D+03 -0.9329228843D-02
      0.8396000000D+02 -0.3989041931D-01
      0.3620000000D+02 -0.1055355078D+00
      0.1583000000D+02  0.9362179729D-02
      0.6334000000D+01  0.5105109260D+00
      0.2694000000D+01  0.5731504921D+00
 S   8 1.00       0.000000000000
      0.1439000000D+04  0.4124162199D-05
      0.2031000000D+03  0.2104155934D-03
      0.8396000000D+02  0.8480710786D-03
      0.3620000000D+02  0.4599171473D-02
      0.1583000000D+02  0.4508898864D-03
      0.6334000000D+01 -0.7367222261D-01
      0.2694000000D+01 -0.3620654654D+00
      0.4313000000D+00  0.1166145419D+01
 S   1 1.00       0.000000000000
      0.9768000000D+00  0.1000000000D+01
 S   1 1.00       0.000000000000
      0.1625000000D+00  0.1000000000D+01
 P   6 1.00       0.000000000000
      0.6633000000D+03  0.2472064066D-02
      0.1568000000D+03  0.1975502338D-01
      0.4998000000D+02  0.9099173548D-01
      0.1842000000D+02  0.2631878341D+00
      0.7240000000D+01  0.4490780732D+00
      0.2922000000D+01  0.3601830723D+00
 P   6 1.00       0.000000000000
      0.1568000000D+03  0.3027166250D-04
      0.4998000000D+02 -0.1225086593D-02
      0.1842000000D+02 -0.6015248783D-02
      0.7240000000D+01 -0.2764176479D-01
      0.2922000000D+01  0.4338088816D-03
      0.3818000000D+00  0.1003073285D+01
 P   1 1.00       0.000000000000
      0.1022000000D+01  0.1000000000D+01
 P   1 1.00       0.000000000000
      0.1301000000D+00  0.1000000000D+01
 D   1 1.00       0.000000000000
      0.4610000000D+01  0.1000000000D+01
 D   1 1.00       0.000000000000
      0.1011000000D+01  0.1000000000D+01
 D   1 1.00       0.000000000000
      0.3390000000D+00  0.1000000000D+01
 F   1 1.00       0.000000000000
      0.7060000000D+00  0.1000000000D+01
 ****
      4 0
 S  15 1.00       0.000000000000
      0.1063900000D+08  0.5896745182D-05
      0.1593400000D+07  0.4607527397D-04
      0.3626100000D+06  0.2420703426D-03
      0.1027000000D+06  0.1022052987D-02
      0.3350100000D+05  0.3709304990D-02
      0.1209300000D+05  0.1197203072D-01
      0.4715900000D+04  0.3467357263D-01
      0.1955600000D+04  0.8907294870D-01
      0.8526100000D+03  0.1933345489D+00
      0.3876700000D+03  0.3206639187D+00
      0.1826800000D+03  0.3295807128D+00
      0.8824500000D+02  0.1492507898D+00
      0.3926300000D+02  0.1557648670D-01
      0.9405700000D+01  0.7937476363D-03
      0.1899500000D+01  0.2652217748D-03
 S  12 1.00       0.000000000000
      0.3350100000D+05 -0.5685368484D-05
      0.1209300000D+05 -0.3526665744D-04
      0.4715900000D+04 -0.3275393771D-03
      0.1955600000D+04 -0.1876292762D-02
      0.8526100000D+03 -0.1014145274D-01
      0.3876700000D+03 -0.3807024403D-01
      0.1826800000D+03 -0.9575369097D-01
      0.8824500000D+02 -0.4738405981D-01
      0.3926300000D+02  0.3475779953D+00
      0.1923400000D+02  0.5739455543D+00
      0.9405700000D+01  0.2142220792D+00
      0.1899500000D+01 -0.1029289626D-01
 S  10 1.00       0.000000000000
      0.4715900000D+04  0.7181053986D-05
      0.8526100000D+03  0.1208285928D-03
      0.3876700000D+03  0.4428524631D-03
      0.1826800000D+03  0.3051630834D-02
      0.8824500000D+02  0.3695717761D-02
      0.3926300000D+02 -0.4417925651D-01
      0.1923400000D+02 -0.2337907175D+00
      0.9405700000D+01 -0.4890374351D-01
      0.4160100000D+01  0.6443747050D+00
      0.1899500000D+01  0.5444241228D+00
 S  10 1.00       0.000000000000
      0.4715900000D+04  0.2458139072D-05
      0.8526100000D+03  0.1215428423D-04
      0.3876700000D+03 -0.4208452873D-04
      0.8824500000D+02 -0.2714111361D-03
      0.3926300000D+02  0.1883352367D-02
      0.1923400000D+02  0.1040094697D-01
      0.9405700000D+01  0.6185749577D-02
      0.4160100000D+01 -0.1115565467D+00
      0.1899500000D+01 -0.4479703046D+00
      0.3011400000D+00  0.1183147328D+01
 S   1 1.00       0.000000000000
      0.6047200000D+00  0.1000000000D+01
 S   1 1.00       0.000000000000
      0.1251500000D+00  0.1000000000D+01
 P   9 1.00       0.000000000000
      0.8676500000D+04  0.4370799928D-03
      0.2055900000D+04  0.3793550623D-02
      0.6662300000D+03  0.2054406734D-01
      0.2531000000D+03  0.7954593888D-01
      0.1061200000D+03  0.2186022953D+00
      0.4724200000D+02  0.3893039098D+00
      0.2182500000D+02  0.3606681106D+00
      0.9968400000D+01  0.1106779629D+00
      0.1998200000D+01 -0.1348076923D-02
 P   9 1.00       0.000000000000
      0.8676500000D+04  0.1001037777D-05
      0.6662300000D+03 -0.7061147843D-04
      0.2531000000D+03 -0.1155608171D-02
      0.1061200000D+03 -0.7097556197D-02
      0.4724200000D+02 -0.2449371243D-01
      0.2182500000D+02 -0.1019825987D-01
      0.9968400000D+01  0.2198547198D+00
      0.4517100000D+01  0.5157410171D+00
      0.1998200000D+01  0.3674940906D+00
 P   8 1.00       0.000000000000
      0.6662300000D+03 -0.2334848891D-04
      0.1061200000D+03 -0.3277965334D-03
      0.4724200000D+02  0.4194389334D-03
      0.2182500000D+02 -0.2206917161D-02
      0.9968400000D+01 -0.6452244639D-02
      0.4517100000D+01 -0.4684587242D-01
      0.1998200000D+01 -0.4091966659D-01
      0.2814500000D+00  0.1018158888D+01
 P   1 1.00       0.000000000000
      0.7098800000D+00  0.1000000000D+01
 P   1 1.00       0.000000000000
      0.1020400000D+00  0.1000000000D+01
 D   7 1.00       0.000000000000
      0.4038300000D+03  0.1517447384D-02
      0.1211700000D+03  0.1305311701D-01
      0.4634500000D+02  0.5978847757D-01
      0.1972100000D+02  0.1756315563D+00
      0.8862400000D+01  0.3281647864D+00
      0.3996200000D+01  0.3960507802D+00
      0.1763600000D+01  0.2819964600D+00
 D   1 1.00       0.000000000000
      0.7061900000D+00  0.1000000000D+01
 D   1 1.00       0.000000000000
      0.2639000000D+00  0.1000000000D+01
 F   1 1.00       0.000000000000
      0.5515000000D+00  0.1000000000D+01
 ****
      5 0
 S   3 1.00       0.000000000000
      0.2122765000D+01  0.2063429899D+01
      0.1770481000D+01 -0.2869526473D+01
      0.3130840000D+00  0.1404747074D+01
 S   1 1.00       0.000000000000
      0.1240710000D+00  0.1000000000D+01
 P   3 1.00       0.000000000000
      0.2432887000D+01  0.7732753148D+00
      0.2137249000D+01 -0.1020833156D+01
      0.3145460000D+00  0.1095666871D+01
 P   1 1.00       0.000000000000
      0.1049450000D+00  0.1000000000D+01
 P   1 1.00       0.000000000000
      0.3264100000D-01  0.1000000000D+01
 D   1 1.00       0.000000000000
      0.3020000000D+00  0.1000000000D+01
 ****
      6 0
 S   3 1.00       0.000000000000
      0.1962420000D+01  0.7836497076D+00
      0.1387359000D+01 -0.1548543810D+01
      0.2962310000D+00  0.1439673124D+01
 S   1 1.00       0.000000000000
      0.1041270000D+00  0.1000000000D+01
 P   3 1.00       0.000000000000
      0.2202138000D+01  0.1075076082D+00
      0.1338791000D+01 -0.3297162076D+00
      0.2620810000D+00  0.1103331080D+01
 P   1 1.00       0.000000000000
      0.9626800000D-01  0.1000000000D+01
 P   1 1.00       0.000000000000
      0.3784900000D-01  0.1000000000D+01
 D   1 1.00       0.000000000000
      0.2300000000D+00  0.1000000000D+01
 ****

 There are   177 symmetry adapted cartesian basis functions of A   symmetry.
 There are   157 symmetry adapted basis functions of A   symmetry.
   157 basis functions,   421 primitive gaussians,   177 cartesian basis functions
    40 alpha electrons       38 beta electrons
       nuclear repulsion energy       343.4458616690 Hartrees.
 NAtoms=    6 NActive=    6 NUniq=    6 SFac= 1.00D+00 NAtFMM=   60 NAOKFM=F Big=F
 Integral buffers will be    131072 words long.
 Raffenetti 2 integral format.
 Two-electron integral symmetry is turned on.
 One-electron integrals computed using PRISM.
   1 Symmetry operations used in ECPInt.
 ECPInt:  NShTT=    1540 NPrTT=   18166 LenC2=    1496 LenP2D=   11904.
 LDataN:  DoStor=T MaxTD1= 8 Len=  415
 NBasis=   157 RedAO= T EigKep=  8.89D-03  NBF=   157
 NBsUse=   157 1.00D-06 EigRej= -1.00D+00 NBFU=   157
 Initial guess from the checkpoint file:  "BiFClBrIAt.chk"
 B after Tr=     0.000000    0.000000    0.000000
         Rot=    1.000000    0.000000    0.000000    0.000000 Ang=   0.00 deg.
 Initial guess <Sx>= 0.0000 <Sy>= 0.0000 <Sz>= 1.0000 <S**2>= 2.0378 S= 1.0125
 Keep R1 and R2 ints in memory in canonical form, NReq=157293466.
 Requested convergence on RMS density matrix=1.00D-08 within  64 cycles.
 Requested convergence on MAX density matrix=1.00D-06.
 Requested convergence on             energy=1.00D-06.
 No special actions if energy rises.
 Rare condition: small coef for last iteration:  0.000D+00
 SCF Done:  E(UHF) =  -3157.91447277     A.U. after   47 cycles
            NFock= 47  Conv=0.80D-08     -V/T= 2.0060
 <Sx>= 0.0000 <Sy>= 0.0000 <Sz>= 1.0000 <S**2>= 2.1568 S= 1.0514
 <L.S>= 0.000000000000E+00
 Annihilation of the first spin contaminant:
 S**2 before annihilation     2.1568,   after     2.0070
 QCSCF skips out because SCF is already converged.
 ExpMin= 3.26D-02 ExpMax= 1.06D+07 ExpMxC= 1.21D+04 IAcc=3 IRadAn=         5 AccDes= 0.00D+00
 HarFok:  IExCor=  205 AccDes= 0.00D+00 IRadAn=         5 IDoV=-2 UseB2=F ITyADJ=14
 ICtDFT= 12500011 ScaDFX=  1.000000  1.000000  1.000000  1.000000
 Defaulting to unpruned grid for atomic number  83.
 Defaulting to unpruned grid for atomic number  83.
 Defaulting to unpruned grid for atomic number  83.
 Defaulting to unpruned grid for atomic number  83.
 Defaulting to unpruned grid for atomic number  83.
 Defaulting to unpruned grid for atomic number  83.
 Defaulting to unpruned grid for atomic number  83.
 Defaulting to unpruned grid for atomic number  83.
 DSYEVD-2 returned Info=          87 IAlg= 4 N=    43 NDim=    43 NE2=    48769149 trying  DSYEV.
 Range of M.O.s used for correlation:    16   157
 NBasis=   157 NAE=    40 NBE=    38 NFC=    15 NFV=     0
 NROrb=    142 NOA=    25 NOB=    23 NVA=   117 NVB=   119
 Semi-Direct transformation.
 ModeAB=           4 MOrb=            25 LenV=    2096286642
 LASXX=     31363125 LTotXX=    31363125 LenRXX=    64360375
 LTotAB=    32997250 MaxLAS=    52973100 LenRXY=           0
 NonZer=    95723500 LenScr=   144353280 LnRSAI=    52973100
 LnScr1=    80214016 LExtra=           0 Total=    341900771
 MaxDsk=          -1 SrtSym=           T ITran=            4
 JobTyp=1 Pass  1:  I=   1 to  25.
 (rs|ai) integrals will be sorted in core.
 ModeAB=           4 MOrb=            23 LenV=    2096286642
 LASXX=     29208551 LTotXX=    29208551 LenRXX=    50007290
 LTotAB=    20798739 MaxLAS=    48735252 LenRXY=           0
 NonZer=    79215841 LenScr=   119595520 LnRSAI=    48735252
 LnScr1=    73876480 LExtra=           0 Total=    292214542
 MaxDsk=          -1 SrtSym=           T ITran=            4
 JobTyp=2 Pass  1:  I=   1 to  23.
 (rs|ai) integrals will be sorted in core.
 SymMOI:  orbitals are not symmetric.
 Spin components of T(2) and E(2):
     alpha-alpha T2 =       0.4900081883D-01 E2=     -0.1306320670D+00
     alpha-beta  T2 =       0.2519148094D+00 E2=     -0.6725974902D+00
     beta-beta   T2 =       0.4315570655D-01 E2=     -0.1190992299D+00
 ANorm=    0.1159340905D+01
 E2 =    -0.9223287871D+00 EUMP2 =    -0.31588368015612D+04
 (S**2,0)=  0.21568D+01           (S**2,1)=  0.21177D+01
 E(PUHF)=      -0.31579203646D+04        E(PMP2)=      -0.31588419790D+04
 Keep R2 and R3 ints in memory in canonical form, NReq=156989584.
 Iterations= 100 Convergence= 0.100D-06
 Iteration Nr.   1
 **********************
 DD1Dir will call FoFMem   1 times, MxPair=      1704
 NAB=   575 NAA=   300 NBB=   253.
 E(PMP3)=      -0.31588710222D+04
 MP4(R+Q)=  0.24039259D-01
 E3=       -0.30031987D-01        EUMP3=      -0.31588668335D+04
 E4(DQ)=    0.10659391D-02        UMP4(DQ)=   -0.31588657676D+04
 E4(SDQ)=  -0.10229707D-01        UMP4(SDQ)=  -0.31588770633D+04
 DE(Corr)= -0.92791208     E(Corr)=     -3158.8423849    
 NORM(A)=   0.11702733D+01
 Iteration Nr.   2
 **********************
 DD1Dir will call FoFMem   1 times, MxPair=      1704
 NAB=   575 NAA=   300 NBB=   253.
 DE(Corr)= -0.95670586     E(CORR)=     -3158.8711786     Delta=-2.88D-02
 NORM(A)=   0.11841358D+01
 Iteration Nr.   3
 **********************
 DD1Dir will call FoFMem   1 times, MxPair=      1704
 NAB=   575 NAA=   300 NBB=   253.
 DE(Corr)= -0.95448770     E(CORR)=     -3158.8689605     Delta= 2.22D-03
 NORM(A)=   0.11906873D+01
 Iteration Nr.   4
 **********************
 DD1Dir will call FoFMem   1 times, MxPair=      1704
 NAB=   575 NAA=   300 NBB=   253.
 DE(Corr)= -0.95834742     E(CORR)=     -3158.8728202     Delta=-3.86D-03
 NORM(A)=   0.11961009D+01
 Iteration Nr.   5
 **********************
 DD1Dir will call FoFMem   1 times, MxPair=      1704
 NAB=   575 NAA=   300 NBB=   253.
 DE(Corr)= -0.95934267     E(CORR)=     -3158.8738154     Delta=-9.95D-04
 NORM(A)=   0.12012829D+01
 Iteration Nr.   6
 **********************
 DD1Dir will call FoFMem   1 times, MxPair=      1704
 NAB=   575 NAA=   300 NBB=   253.
 DE(Corr)= -0.95978703     E(CORR)=     -3158.8742598     Delta=-4.44D-04
 NORM(A)=   0.12048237D+01
 Iteration Nr.   7
 **********************
 DD1Dir will call FoFMem   1 times, MxPair=      1704
 NAB=   575 NAA=   300 NBB=   253.
 DE(Corr)= -0.96002264     E(CORR)=     -3158.8744954     Delta=-2.36D-04
 NORM(A)=   0.12058347D+01
 Iteration Nr.   8
 **********************
 DD1Dir will call FoFMem   1 times, MxPair=      1704
 NAB=   575 NAA=   300 NBB=   253.
 DE(Corr)= -0.96012223     E(CORR)=     -3158.8745950     Delta=-9.96D-05
 NORM(A)=   0.12066556D+01
 Iteration Nr.   9
 **********************
 DD1Dir will call FoFMem   1 times, MxPair=      1704
 NAB=   575 NAA=   300 NBB=   253.
 DE(Corr)= -0.96009969     E(CORR)=     -3158.8745725     Delta= 2.25D-05
 NORM(A)=   0.12070316D+01
 Iteration Nr.  10
 **********************
 DD1Dir will call FoFMem   1 times, MxPair=      1704
 NAB=   575 NAA=   300 NBB=   253.
 DE(Corr)= -0.96019463     E(CORR)=     -3158.8746674     Delta=-9.49D-05
 NORM(A)=   0.12071958D+01
 Iteration Nr.  11
 **********************
 DD1Dir will call FoFMem   1 times, MxPair=      1704
 NAB=   575 NAA=   300 NBB=   253.
 DE(Corr)= -0.96015904     E(CORR)=     -3158.8746318     Delta= 3.56D-05
 NORM(A)=   0.12072960D+01
 Iteration Nr.  12
 **********************
 DD1Dir will call FoFMem   1 times, MxPair=      1704
 NAB=   575 NAA=   300 NBB=   253.
 DE(Corr)= -0.96021045     E(CORR)=     -3158.8746832     Delta=-5.14D-05
 NORM(A)=   0.12073671D+01
 Iteration Nr.  13
 **********************
 DD1Dir will call FoFMem   1 times, MxPair=      1704
 NAB=   575 NAA=   300 NBB=   253.
 DE(Corr)= -0.96019478     E(CORR)=     -3158.8746676     Delta= 1.57D-05
 NORM(A)=   0.12074417D+01
 Iteration Nr.  14
 **********************
 DD1Dir will call FoFMem   1 times, MxPair=      1704
 NAB=   575 NAA=   300 NBB=   253.
 DE(Corr)= -0.96020813     E(CORR)=     -3158.8746809     Delta=-1.34D-05
 NORM(A)=   0.12075111D+01
 Iteration Nr.  15
 **********************
 DD1Dir will call FoFMem   1 times, MxPair=      1704
 NAB=   575 NAA=   300 NBB=   253.
 DE(Corr)= -0.96020876     E(CORR)=     -3158.8746815     Delta=-6.32D-07
 NORM(A)=   0.12075676D+01
 Iteration Nr.  16
 **********************
 DD1Dir will call FoFMem   1 times, MxPair=      1704
 NAB=   575 NAA=   300 NBB=   253.
 DE(Corr)= -0.96021300     E(CORR)=     -3158.8746858     Delta=-4.24D-06
 NORM(A)=   0.12076186D+01
 Iteration Nr.  17
 **********************
 DD1Dir will call FoFMem   1 times, MxPair=      1704
 NAB=   575 NAA=   300 NBB=   253.
 DE(Corr)= -0.96021400     E(CORR)=     -3158.8746868     Delta=-1.01D-06
 NORM(A)=   0.12076579D+01
 Iteration Nr.  18
 **********************
 DD1Dir will call FoFMem   1 times, MxPair=      1704
 NAB=   575 NAA=   300 NBB=   253.
 DE(Corr)= -0.96021918     E(CORR)=     -3158.8746920     Delta=-5.18D-06
 NORM(A)=   0.12076868D+01
 Iteration Nr.  19
 **********************
 DD1Dir will call FoFMem   1 times, MxPair=      1704
 NAB=   575 NAA=   300 NBB=   253.
 DE(Corr)= -0.96021812     E(CORR)=     -3158.8746909     Delta= 1.06D-06
 NORM(A)=   0.12077098D+01
 Iteration Nr.  20
 **********************
 DD1Dir will call FoFMem   1 times, MxPair=      1704
 NAB=   575 NAA=   300 NBB=   253.
 DE(Corr)= -0.96022242     E(CORR)=     -3158.8746952     Delta=-4.30D-06
 NORM(A)=   0.12077287D+01
 Iteration Nr.  21
 **********************
 DD1Dir will call FoFMem   1 times, MxPair=      1704
 NAB=   575 NAA=   300 NBB=   253.
 DE(Corr)= -0.96022079     E(CORR)=     -3158.8746936     Delta= 1.64D-06
 NORM(A)=   0.12077447D+01
 Iteration Nr.  22
 **********************
 DD1Dir will call FoFMem   1 times, MxPair=      1704
 NAB=   575 NAA=   300 NBB=   253.
 DE(Corr)= -0.96022394     E(CORR)=     -3158.8746967     Delta=-3.15D-06
 NORM(A)=   0.12077568D+01
 Iteration Nr.  23
 **********************
 DD1Dir will call FoFMem   1 times, MxPair=      1704
 NAB=   575 NAA=   300 NBB=   253.
 DE(Corr)= -0.96022268     E(CORR)=     -3158.8746955     Delta= 1.26D-06
 NORM(A)=   0.12077655D+01
 Iteration Nr.  24
 **********************
 DD1Dir will call FoFMem   1 times, MxPair=      1704
 NAB=   575 NAA=   300 NBB=   253.
 DE(Corr)= -0.96022435     E(CORR)=     -3158.8746971     Delta=-1.67D-06
 NORM(A)=   0.12077728D+01
 Iteration Nr.  25
 **********************
 DD1Dir will call FoFMem   1 times, MxPair=      1704
 NAB=   575 NAA=   300 NBB=   253.
 DE(Corr)= -0.96022381     E(CORR)=     -3158.8746966     Delta= 5.46D-07
 NORM(A)=   0.12077748D+01
 Iteration Nr.  26
 **********************
 DD1Dir will call FoFMem   1 times, MxPair=      1704
 NAB=   575 NAA=   300 NBB=   253.
 DE(Corr)= -0.96022423     E(CORR)=     -3158.8746970     Delta=-4.23D-07
 NORM(A)=   0.12077755D+01
 Iteration Nr.  27
 **********************
 DD1Dir will call FoFMem   1 times, MxPair=      1704
 NAB=   575 NAA=   300 NBB=   253.
 DE(Corr)= -0.96022413     E(CORR)=     -3158.8746969     Delta= 9.94D-08
 NORM(A)=   0.12077725D+01
 Iteration Nr.  28
 **********************
 DD1Dir will call FoFMem   1 times, MxPair=      1704
 NAB=   575 NAA=   300 NBB=   253.
 DE(Corr)= -0.96022379     E(CORR)=     -3158.8746966     Delta= 3.39D-07
 NORM(A)=   0.12077695D+01
 Iteration Nr.  29
 **********************
 DD1Dir will call FoFMem   1 times, MxPair=      1704
 NAB=   575 NAA=   300 NBB=   253.
 DE(Corr)= -0.96022358     E(CORR)=     -3158.8746963     Delta= 2.18D-07
 NORM(A)=   0.12077668D+01
 Iteration Nr.  30
 **********************
 DD1Dir will call FoFMem   1 times, MxPair=      1704
 NAB=   575 NAA=   300 NBB=   253.
 DE(Corr)= -0.96022342     E(CORR)=     -3158.8746962     Delta= 1.51D-07
 NORM(A)=   0.12077660D+01
 Iteration Nr.  31
 **********************
 DD1Dir will call FoFMem   1 times, MxPair=      1704
 NAB=   575 NAA=   300 NBB=   253.
 DE(Corr)= -0.96022309     E(CORR)=     -3158.8746959     Delta= 3.36D-07
 NORM(A)=   0.12077673D+01
 Iteration Nr.  32
 **********************
 DD1Dir will call FoFMem   1 times, MxPair=      1704
 NAB=   575 NAA=   300 NBB=   253.
 DE(Corr)= -0.96022352     E(CORR)=     -3158.8746963     Delta=-4.33D-07
 NORM(A)=   0.12077692D+01
 Iteration Nr.  33
 **********************
 DD1Dir will call FoFMem   1 times, MxPair=      1704
 NAB=   575 NAA=   300 NBB=   253.
 DE(Corr)= -0.96022320     E(CORR)=     -3158.8746960     Delta= 3.17D-07
 NORM(A)=   0.12077729D+01
 Iteration Nr.  34
 **********************
 DD1Dir will call FoFMem   1 times, MxPair=      1704
 NAB=   575 NAA=   300 NBB=   253.
 DE(Corr)= -0.96022379     E(CORR)=     -3158.8746966     Delta=-5.81D-07
 NORM(A)=   0.12077761D+01
 Iteration Nr.  35
 **********************
 DD1Dir will call FoFMem   1 times, MxPair=      1704
 NAB=   575 NAA=   300 NBB=   253.
 DE(Corr)= -0.96022372     E(CORR)=     -3158.8746965     Delta= 6.22D-08
 NORM(A)=   0.12077794D+01
 Iteration Nr.  36
 **********************
 DD1Dir will call FoFMem   1 times, MxPair=      1704
 NAB=   575 NAA=   300 NBB=   253.
 DE(Corr)= -0.96022403     E(CORR)=     -3158.8746968     Delta=-3.07D-07
 NORM(A)=   0.12077812D+01
 Iteration Nr.  37
 **********************
 DD1Dir will call FoFMem   1 times, MxPair=      1704
 NAB=   575 NAA=   300 NBB=   253.
 DE(Corr)= -0.96022409     E(CORR)=     -3158.8746969     Delta=-5.71D-08
 NORM(A)=   0.12077823D+01
 Iteration Nr.  38
 **********************
 DD1Dir will call FoFMem   1 times, MxPair=      1704
 NAB=   575 NAA=   300 NBB=   253.
 DE(Corr)= -0.96022414     E(CORR)=     -3158.8746969     Delta=-5.21D-08
 NORM(A)=   0.12077827D+01
 Iteration Nr.  39
 **********************
 DD1Dir will call FoFMem   1 times, MxPair=      1704
 NAB=   575 NAA=   300 NBB=   253.
 DE(Corr)= -0.96022419     E(CORR)=     -3158.8746970     Delta=-4.93D-08
 NORM(A)=   0.12077819D+01
 Iteration Nr.  40
 **********************
 DD1Dir will call FoFMem   1 times, MxPair=      1704
 NAB=   575 NAA=   300 NBB=   253.
 DE(Corr)= -0.96022409     E(CORR)=     -3158.8746969     Delta= 1.02D-07
 NORM(A)=   0.12077809D+01
 Iteration Nr.  41
 **********************
 DD1Dir will call FoFMem   1 times, MxPair=      1704
 NAB=   575 NAA=   300 NBB=   253.
 DE(Corr)= -0.96022405     E(CORR)=     -3158.8746968     Delta= 3.93D-08
 NORM(A)=   0.12077794D+01
 Iteration Nr.  42
 **********************
 DD1Dir will call FoFMem   1 times, MxPair=      1704
 NAB=   575 NAA=   300 NBB=   253.
 DE(Corr)= -0.96022388     E(CORR)=     -3158.8746967     Delta= 1.68D-07
 NORM(A)=   0.12077784D+01
 Iteration Nr.  43
 **********************
 DD1Dir will call FoFMem   1 times, MxPair=      1704
 NAB=   575 NAA=   300 NBB=   253.
 DE(Corr)= -0.96022385     E(CORR)=     -3158.8746966     Delta= 2.62D-08
 NORM(A)=   0.12077779D+01
 Iteration Nr.  44
 **********************
 DD1Dir will call FoFMem   1 times, MxPair=      1704
 NAB=   575 NAA=   300 NBB=   253.
 DE(Corr)= -0.96022372     E(CORR)=     -3158.8746965     Delta= 1.37D-07
 NORM(A)=   0.12077781D+01
 Iteration Nr.  45
 **********************
 DD1Dir will call FoFMem   1 times, MxPair=      1704
 NAB=   575 NAA=   300 NBB=   253.
 DE(Corr)= -0.96022379     E(CORR)=     -3158.8746966     Delta=-7.13D-08
 NORM(A)=   0.12077789D+01
 Iteration Nr.  46
 **********************
 DD1Dir will call FoFMem   1 times, MxPair=      1704
 NAB=   575 NAA=   300 NBB=   253.
 DE(Corr)= -0.96022376     E(CORR)=     -3158.8746965     Delta= 2.62D-08
 NORM(A)=   0.12077799D+01
 Iteration Nr.  47
 **********************
 DD1Dir will call FoFMem   1 times, MxPair=      1704
 NAB=   575 NAA=   300 NBB=   253.
 DE(Corr)= -0.96022386     E(CORR)=     -3158.8746966     Delta=-1.02D-07
 NORM(A)=   0.12077811D+01
 Iteration Nr.  48
 **********************
 DD1Dir will call FoFMem   1 times, MxPair=      1704
 NAB=   575 NAA=   300 NBB=   253.
 DE(Corr)= -0.96022395     E(CORR)=     -3158.8746967     Delta=-8.19D-08
 NORM(A)=   0.12077819D+01
 Iteration Nr.  49
 **********************
 DD1Dir will call FoFMem   1 times, MxPair=      1704
 NAB=   575 NAA=   300 NBB=   253.
 DE(Corr)= -0.96022398     E(CORR)=     -3158.8746968     Delta=-3.30D-08
 NORM(A)=   0.12077824D+01
 Iteration Nr.  50
 **********************
 DD1Dir will call FoFMem   1 times, MxPair=      1704
 NAB=   575 NAA=   300 NBB=   253.
 DE(Corr)= -0.96022406     E(CORR)=     -3158.8746968     Delta=-7.94D-08
 NORM(A)=   0.12077824D+01
 Iteration Nr.  51
 **********************
 DD1Dir will call FoFMem   1 times, MxPair=      1704
 NAB=   575 NAA=   300 NBB=   253.
 DE(Corr)= -0.96022401     E(CORR)=     -3158.8746968     Delta= 4.75D-08
 NORM(A)=   0.12077822D+01
 Iteration Nr.  52
 **********************
 DD1Dir will call FoFMem   1 times, MxPair=      1704
 NAB=   575 NAA=   300 NBB=   253.
 DE(Corr)= -0.96022404     E(CORR)=     -3158.8746968     Delta=-2.90D-08
 NORM(A)=   0.12077817D+01
 Iteration Nr.  53
 **********************
 DD1Dir will call FoFMem   1 times, MxPair=      1704
 NAB=   575 NAA=   300 NBB=   253.
 DE(Corr)= -0.96022397     E(CORR)=     -3158.8746967     Delta= 7.28D-08
 NORM(A)=   0.12077813D+01
 Iteration Nr.  54
 **********************
 DD1Dir will call FoFMem   1 times, MxPair=      1704
 NAB=   575 NAA=   300 NBB=   253.
 DE(Corr)= -0.96022395     E(CORR)=     -3158.8746967     Delta= 2.01D-08
 NORM(A)=   0.12077808D+01
 Iteration Nr.  55
 **********************
 DD1Dir will call FoFMem   1 times, MxPair=      1704
 NAB=   575 NAA=   300 NBB=   253.
 DE(Corr)= -0.96022391     E(CORR)=     -3158.8746967     Delta= 4.02D-08
 NORM(A)=   0.12077807D+01
 Iteration Nr.  56
 **********************
 DD1Dir will call FoFMem   1 times, MxPair=      1704
 NAB=   575 NAA=   300 NBB=   253.
 DE(Corr)= -0.96022387     E(CORR)=     -3158.8746966     Delta= 3.52D-08
 NORM(A)=   0.12077809D+01
 Iteration Nr.  57
 **********************
 DD1Dir will call FoFMem   1 times, MxPair=      1704
 NAB=   575 NAA=   300 NBB=   253.
 DE(Corr)= -0.96022394     E(CORR)=     -3158.8746967     Delta=-6.81D-08
 NORM(A)=   0.12077813D+01
 Iteration Nr.  58
 **********************
 DD1Dir will call FoFMem   1 times, MxPair=      1704
 NAB=   575 NAA=   300 NBB=   253.
 DE(Corr)= -0.96022392     E(CORR)=     -3158.8746967     Delta= 2.29D-08
 NORM(A)=   0.12077818D+01
 Iteration Nr.  59
 **********************
 DD1Dir will call FoFMem   1 times, MxPair=      1704
 NAB=   575 NAA=   300 NBB=   253.
 DE(Corr)= -0.96022399     E(CORR)=     -3158.8746968     Delta=-7.08D-08
 NORM(A)=   0.12077823D+01
 Iteration Nr.  60
 **********************
 DD1Dir will call FoFMem   1 times, MxPair=      1704
 NAB=   575 NAA=   300 NBB=   253.
 DE(Corr)= -0.96022400     E(CORR)=     -3158.8746968     Delta=-1.42D-08
 NORM(A)=   0.12077824D+01
 Iteration Nr.  61
 **********************
 DD1Dir will call FoFMem   1 times, MxPair=      1704
 NAB=   575 NAA=   300 NBB=   253.
 DE(Corr)= -0.96022401     E(CORR)=     -3158.8746968     Delta=-1.18D-08
 NORM(A)=   0.12077825D+01
 Iteration Nr.  62
 **********************
 DD1Dir will call FoFMem   1 times, MxPair=      1704
 NAB=   575 NAA=   300 NBB=   253.
 DE(Corr)= -0.96022401     E(CORR)=     -3158.8746968     Delta= 4.98D-09
 NORM(A)=   0.12077822D+01
 Iteration Nr.  63
 **********************
 DD1Dir will call FoFMem   1 times, MxPair=      1704
 NAB=   575 NAA=   300 NBB=   253.
 DE(Corr)= -0.96022395     E(CORR)=     -3158.8746967     Delta= 5.35D-08
 NORM(A)=   0.12077822D+01
 Iteration Nr.  64
 **********************
 DD1Dir will call FoFMem   1 times, MxPair=      1704
 NAB=   575 NAA=   300 NBB=   253.
 DE(Corr)= -0.96022400     E(CORR)=     -3158.8746968     Delta=-4.24D-08
 NORM(A)=   0.12077822D+01
 Iteration Nr.  65
 **********************
 DD1Dir will call FoFMem   1 times, MxPair=      1704
 NAB=   575 NAA=   300 NBB=   253.
 DE(Corr)= -0.96022398     E(CORR)=     -3158.8746968     Delta= 1.60D-08
 NORM(A)=   0.12077822D+01
 Largest amplitude= 8.19D-02
 Time for triples=     8428.04 seconds.
 T4(CCSD)= -0.44252635D-01
 T5(CCSD)=  0.23959486D-02
 CCSD(T)= -0.31589165534D+04

 S**2, projected HF & approx projected MPn energies after annihilation of
 unwanted spin states (see manual for definitions):

 spins       (S**2,0) (S**2,1)    PUHF        PMP2        PMP3        PMP4
 annihilated
 s+1         1.99538  1.99939-3157.920365-3158.841979-3158.871022
 s+1,s+2     2.00005  1.99997-3157.920088-3158.841736-3158.870814
 s+1 to s+3  2.00000  2.00000-3157.920091-3158.841738-3158.870815
 s+1 to s+4  2.00000  2.00000-3157.920091-3158.841738-3158.870815
 s+1 to s+5  2.00000  2.00000-3157.920091
 s+1 to s+6  2.00000  2.00000-3157.920091

 Discarding MO integrals.

 **********************************************************************

            Population analysis using the SCF density.

 **********************************************************************

 Orbital symmetries:
 Alpha Orbitals:
       Occupied  (A) (A) (A) (A) (A) (A) (A) (A) (A) (A) (A) (A)
                 (A) (A) (A) (A) (A) (A) (A) (A) (A) (A) (A) (A)
                 (A) (A) (A) (A) (A) (A) (A) (A) (A) (A) (A) (A)
                 (A) (A) (A) (A)
       Virtual   (A) (A) (A) (A) (A) (A) (A) (A) (A) (A) (A) (A)
                 (A) (A) (A) (A) (A) (A) (A) (A) (A) (A) (A) (A)
                 (A) (A) (A) (A) (A) (A) (A) (A) (A) (A) (A) (A)
                 (A) (A) (A) (A) (A) (A) (A) (A) (A) (A) (A) (A)
                 (A) (A) (A) (A) (A) (A) (A) (A) (A) (A) (A) (A)
                 (A) (A) (A) (A) (A) (A) (A) (A) (A) (A) (A) (A)
                 (A) (A) (A) (A) (A) (A) (A) (A) (A) (A) (A) (A)
                 (A) (A) (A) (A) (A) (A) (A) (A) (A) (A) (A) (A)
                 (A) (A) (A) (A) (A) (A) (A) (A) (A) (A) (A) (A)
                 (A) (A) (A) (A) (A) (A) (A) (A) (A)
 Beta  Orbitals:
       Occupied  (A) (A) (A) (A) (A) (A) (A) (A) (A) (A) (A) (A)
                 (A) (A) (A) (A) (A) (A) (A) (A) (A) (A) (A) (A)
                 (A) (A) (A) (A) (A) (A) (A) (A) (A) (A) (A) (A)
                 (A) (A)
       Virtual   (A) (A) (A) (A) (A) (A) (A) (A) (A) (A) (A) (A)
                 (A) (A) (A) (A) (A) (A) (A) (A) (A) (A) (A) (A)
                 (A) (A) (A) (A) (A) (A) (A) (A) (A) (A) (A) (A)
                 (A) (A) (A) (A) (A) (A) (A) (A) (A) (A) (A) (A)
                 (A) (A) (A) (A) (A) (A) (A) (A) (A) (A) (A) (A)
                 (A) (A) (A) (A) (A) (A) (A) (A) (A) (A) (A) (A)
                 (A) (A) (A) (A) (A) (A) (A) (A) (A) (A) (A) (A)
                 (A) (A) (A) (A) (A) (A) (A) (A) (A) (A) (A) (A)
                 (A) (A) (A) (A) (A) (A) (A) (A) (A) (A) (A) (A)
                 (A) (A) (A) (A) (A) (A) (A) (A) (A) (A) (A)
 The electronic state is 3-A.
 Alpha  occ. eigenvalues -- -490.35832-105.14959 -65.49737 -58.85182 -58.85085
 Alpha  occ. eigenvalues --  -58.85075 -26.55777 -10.87195 -10.16854  -8.33969
 Alpha  occ. eigenvalues --   -8.33633  -8.33497  -7.77871  -7.77220  -7.77159
 Alpha  occ. eigenvalues --   -3.52533  -3.52139  -3.52046  -3.50898  -3.50897
 Alpha  occ. eigenvalues --   -1.83047  -1.41078  -1.38236  -1.34138  -1.30708
 Alpha  occ. eigenvalues --   -1.12234  -0.92997  -0.92931  -0.90742  -0.85139
 Alpha  occ. eigenvalues --   -0.83552  -0.81801  -0.80966  -0.78142  -0.76504
 Alpha  occ. eigenvalues --   -0.76188  -0.75367  -0.73628  -0.73327  -0.72633
 Alpha virt. eigenvalues --   -0.45798  -0.30281  -0.26363  -0.19416  -0.14588
 Alpha virt. eigenvalues --   -0.13877  -0.13279  -0.12477  -0.12209  -0.12007
 Alpha virt. eigenvalues --    0.06209   0.07164   0.07832   0.08742   0.09681
 Alpha virt. eigenvalues --    0.12926   0.14034   0.16310   0.18795   0.19014
 Alpha virt. eigenvalues --    0.20714   0.20891   0.22490   0.22801   0.23422
 Alpha virt. eigenvalues --    0.23740   0.24083   0.25209   0.26212   0.26995
 Alpha virt. eigenvalues --    0.29206   0.31285   0.32187   0.32883   0.33569
 Alpha virt. eigenvalues --    0.36013   0.37834   0.39683   0.41460   0.43270
 Alpha virt. eigenvalues --    0.49048   0.50021   0.55547   0.56511   0.59501
 Alpha virt. eigenvalues --    0.61028   0.64741   0.66486   0.71087   0.75216
 Alpha virt. eigenvalues --    0.76218   0.86349   0.88869   0.98382   1.09734
 Alpha virt. eigenvalues --    1.42889   1.44615   1.45507   1.46306   1.46361
 Alpha virt. eigenvalues --    1.46478   1.47736   1.53469   1.72182   1.72555
 Alpha virt. eigenvalues --    1.73655   1.73938   1.76600   1.77151   1.78247
 Alpha virt. eigenvalues --    1.80136   1.83886   1.85152   1.89196   1.89731
 Alpha virt. eigenvalues --    1.95467   1.99413   2.00471   2.02740   2.08902
 Alpha virt. eigenvalues --    2.09910   2.11448   2.11547   2.11733   2.13347
 Alpha virt. eigenvalues --    2.15479   2.19490   2.26357   2.31454   2.32105
 Alpha virt. eigenvalues --    2.42669   3.05104   4.68316   4.89448   4.90229
 Alpha virt. eigenvalues --    4.92946   7.08855   7.09524   7.09789   7.10814
 Alpha virt. eigenvalues --    7.10849   7.12949   7.12981   8.33117   8.33888
 Alpha virt. eigenvalues --    8.35677   8.36321   8.41323   8.59526   8.59766
 Alpha virt. eigenvalues --    8.62505   8.63406   8.69611   9.05697  10.59400
 Alpha virt. eigenvalues --   11.75134  13.75041
  Beta  occ. eigenvalues -- -490.35940-105.14917 -65.49786 -58.85477 -58.85128
  Beta  occ. eigenvalues --  -58.85108 -26.55745 -10.87151 -10.17058  -8.33872
  Beta  occ. eigenvalues --   -8.33561  -8.33443  -7.78642  -7.77293  -7.77208
  Beta  occ. eigenvalues --   -3.52812  -3.52356  -3.52257  -3.50910  -3.50909
  Beta  occ. eigenvalues --   -1.82953  -1.38504  -1.33377  -1.30215  -1.24871
  Beta  occ. eigenvalues --   -1.11373  -0.92630  -0.92479  -0.90681  -0.82326
  Beta  occ. eigenvalues --   -0.81675  -0.76421  -0.75956  -0.75355  -0.74466
  Beta  occ. eigenvalues --   -0.73780  -0.73332  -0.72244
  Beta virt. eigenvalues --   -0.45415  -0.42314  -0.41654  -0.28833  -0.27728
  Beta virt. eigenvalues --   -0.18098  -0.14490  -0.12978  -0.12903  -0.12209
  Beta virt. eigenvalues --   -0.11882  -0.11158   0.07956   0.08181   0.08620
  Beta virt. eigenvalues --    0.09504   0.09912   0.12942   0.13733   0.17537
  Beta virt. eigenvalues --    0.18971   0.22100   0.22785   0.23361   0.24156
  Beta virt. eigenvalues --    0.24423   0.25719   0.27220   0.27882   0.28198
  Beta virt. eigenvalues --    0.29861   0.30496   0.31622   0.32354   0.33180
  Beta virt. eigenvalues --    0.34889   0.35944   0.37081   0.39147   0.41262
  Beta virt. eigenvalues --    0.43966   0.44194   0.49853   0.51106   0.55895
  Beta virt. eigenvalues --    0.58130   0.60248   0.63348   0.65341   0.67030
  Beta virt. eigenvalues --    0.71495   0.75717   0.76750   0.86300   0.89169
  Beta virt. eigenvalues --    0.98410   1.10015   1.42065   1.43758   1.44595
  Beta virt. eigenvalues --    1.45189   1.45962   1.46327   1.46617   1.53216
  Beta virt. eigenvalues --    1.71941   1.72437   1.73437   1.73815   1.76123
  Beta virt. eigenvalues --    1.76570   1.78245   1.80075   1.83239   1.84440
  Beta virt. eigenvalues --    1.88814   1.89847   1.94736   1.99377   2.00356
  Beta virt. eigenvalues --    2.02842   2.08698   2.09892   2.11520   2.11571
  Beta virt. eigenvalues --    2.11828   2.13570   2.15478   2.19527   2.26499
  Beta virt. eigenvalues --    2.31582   2.31904   2.42977   3.04850   4.68389
  Beta virt. eigenvalues --    4.89502   4.90042   4.93217   7.08892   7.09558
  Beta virt. eigenvalues --    7.09804   7.10837   7.10877   7.12952   7.12983
  Beta virt. eigenvalues --    8.33117   8.33876   8.35726   8.36425   8.41381
  Beta virt. eigenvalues --    8.59518   8.59710   8.62596   8.63518   8.69734
  Beta virt. eigenvalues --    9.06280  10.59558  11.75405  13.75686
          Condensed to atoms (all electrons):
               1          2          3          4          5          6
     1  Bi   2.866333   0.096473   0.148987   0.200141   0.145749   0.145622
     2  F    0.096473   9.552188   0.000590  -0.024157  -0.014270  -0.013425
     3  Cl   0.148987   0.000590  17.197063  -0.038401  -0.021895  -0.021734
     4  Br   0.200141  -0.024157  -0.038401  34.813404  -0.004365  -0.004416
     5  I    0.145749  -0.014270  -0.021895  -0.004365   6.264291  -0.001974
     6  At   0.145622  -0.013425  -0.021734  -0.004416  -0.001974   6.120870
          Atomic-Atomic Spin Densities.
               1          2          3          4          5          6
     1  Bi   0.006530  -0.007356  -0.018204  -0.001793  -0.024907  -0.022538
     2  F   -0.007356   0.011035   0.000024   0.001623  -0.001620  -0.001827
     3  Cl  -0.018204   0.000024   0.048259   0.003246  -0.004367  -0.004430
     4  Br  -0.001793   0.001623   0.003246  -0.277831   0.000245   0.000318
     5  I   -0.024907  -0.001620  -0.004367   0.000245   1.124866   0.000745
     6  At  -0.022538  -0.001827  -0.004430   0.000318   0.000745   1.248821
 Mulliken charges and spin densities:
               1          2
     1  Bi   1.396695  -0.068268
     2  F   -0.597399   0.001880
     3  Cl  -0.264610   0.024528
     4  Br   0.057794  -0.274191
     5  I    0.632464   1.094962
     6  At   0.775057   1.221089
 Sum of Mulliken charges =   2.00000   2.00000
 Mulliken charges and spin densities with hydrogens summed into heavy atoms:
               1          2
     1  Bi   1.396695  -0.068268
     2  F   -0.597399   0.001880
     3  Cl  -0.264610   0.024528
     4  Br   0.057794  -0.274191
     5  I    0.632464   1.094962
     6  At   0.775057   1.221089
 Electronic spatial extent (au):  <R**2>=           2163.2248
 Charge=              2.0000 electrons
 Dipole moment (field-independent basis, Debye):
    X=              0.1894    Y=             -4.2794    Z=              1.1727  Tot=              4.4412
 Quadrupole moment (field-independent basis, Debye-Ang):
   XX=            -31.3962   YY=            -64.0405   ZZ=            -90.2919
   XY=             -5.9932   XZ=             -0.0106   YZ=              0.6912
 Traceless Quadrupole moment (field-independent basis, Debye-Ang):
   XX=             30.5134   YY=             -2.1310   ZZ=            -28.3824
   XY=             -5.9932   XZ=             -0.0106   YZ=              0.6912
 Octapole moment (field-independent basis, Debye-Ang**2):
  XXX=           -106.3264  YYY=            -28.4166  ZZZ=            -14.9240  XYY=             17.4637
  XXY=            -80.0657  XXZ=            -19.2230  XZZ=            -31.2080  YZZ=            -25.7023
  YYZ=            -19.7674  XYZ=              0.5179
 Hexadecapole moment (field-independent basis, Debye-Ang**3):
 XXXX=          -1131.3000 YYYY=          -1011.0339 ZZZZ=           -713.5212 XXXY=            -86.2779
 XXXZ=            -13.9302 YYYX=             -2.0052 YYYZ=            -20.4729 ZZZX=             -0.8319
 ZZZY=              9.9799 XXYY=           -353.1794 XXZZ=           -353.7317 YYZZ=           -323.2193
 XXYZ=              3.5574 YYXZ=            -14.0791 ZZXY=            -12.2734
 N-N= 3.434458616690D+02 E-N=-8.201937011501D+03  KE= 3.138947618302D+03
 1\1\GINC-GAMBA\SP\UCCSD(T)-FC\Gen\At1Bi1Br1Cl1F1I1(2+,3)\IRIKURA\19-Ma
 y-2017\0\\# CCSD(T,maxcyc=100)/GEN gfinput geom=check scf=xqc pseudo=r
 ead guess=check\\BEB step 9: high-spin CCSD(T) for dication of BiFClBr
 IAt\\2,3\Bi,0,-0.9365127913,0.6634957207,-0.0229682709\F,0,-0.91480156
 66,0.6506383511,2.0117615586\Cl,0,-0.9482875525,0.673187048,-2.5888735
 473\Br,0,-2.2655976762,2.8869666536,0.0529192917\I,0,-2.4412175827,-1.
 7333450332,0.0647936077\At,0,1.9930976294,0.7281258298,0.0723673602\\V
 ersion=ES64L-G09RevD.01\State=3-A\HF=-3157.9144728\MP2=-3158.8368016\M
 P3=-3158.8668335\MP4D=-3158.8898069\MP4DQ=-3158.8657676\PUHF=-3157.920
 3646\PMP2-0=-3158.841979\PMP3-0=-3158.8710222\MP4SDQ=-3158.8770633\CCS
 D=-3158.8746968\CCSD(T)=-3158.9165534\S2=2.156797\S2-1=2.117655\S2A=2.
 007033\RMSD=7.992e-09\PG=C01 [X(At1Bi1Br1Cl1F1I1)]\\@


 BLESSED ARE THOSE WHO NOUGHT EXPECT,
 FOR THEY SHALL NOT BE DISAPPOINTED..  WALCOT - ODE TO PITT
 Job cpu time:       0 days 12 hours 21 minutes 31.2 seconds.
 File lengths (MBytes):  RWF=   8407 Int=      0 D2E=      0 Chk=      4 Scr=      1
 Normal termination of Gaussian 09 at Fri May 19 20:08:46 2017.
