 Entering Gaussian System, Link 0=g09
 AtFile(1): t_plusd.gbs
            -Al     0
            S   13   1.00
             205500.0000000              0.678836D-04
              30780.0000000              0.527149D-03
               7006.0000000              0.276203D-02
               1985.0000000              0.114728D-01
                649.1000000              0.398188D-01
                235.0000000              0.115040D+00
                 91.6200000              0.260887D+00
                 37.6700000              0.396386D+00
                 15.9100000              0.284597D+00
                  5.8500000              0.444583D-01
                  2.5420000             -0.489838D-02
                  1.0570000              0.261253D-02
                  0.1455000              0.722068D-03
            S   13   1.00
             205500.0000000             -0.176377D-04
              30780.0000000             -0.137195D-03
               7006.0000000             -0.718910D-03
               1985.0000000             -0.301146D-02
                649.1000000             -0.106014D-01
                235.0000000             -0.321345D-01
                 91.6200000             -0.803156D-01
                 37.6700000             -0.156794D+00
                 15.9100000             -0.168376D+00
                  5.8500000              0.126879D+00
                  2.5420000              0.561494D+00
                  1.0570000              0.436613D+00
                  0.1455000             -0.114563D-01
            S   13   1.00
             205500.0000000              0.407315D-05
              30780.0000000              0.316566D-04
               7006.0000000              0.166116D-03
               1985.0000000              0.694992D-03
                649.1000000              0.245511D-02
                235.0000000              0.744598D-02
                 91.6200000              0.188253D-01
                 37.6700000              0.372772D-01
                 15.9100000              0.419496D-01
                  5.8500000             -0.354375D-01
                  2.5420000             -0.175132D+00
                  1.0570000             -0.276203D+00
                  0.1455000              0.652809D+00
            S   1   1.00
                  0.2931000              1.0000000
            S   1   1.00
                  0.0565000              1.0000000
            P   7   1.00
                444.4000000              0.162786D-02
                105.1000000              0.130687D-01
                 33.4700000              0.612341D-01
                 12.3300000              0.187870D+00
                  4.8690000              0.360452D+00
                  1.9610000              0.408454D+00
                  0.1888000              0.976514D-02
            P   7   1.00
                444.4000000             -0.286341D-03
                105.1000000             -0.242308D-02
                 33.4700000             -0.108658D-01
                 12.3300000             -0.364307D-01
                  4.8690000             -0.641074D-01
                  1.9610000             -0.972239D-01
                  0.1888000              0.503448D+00
            P   1   1.00
                  0.7834000              1.0000000
            P   1   1.00
                  0.0555700              1.0000000
            D   1   1.00
                  1.5700000              1.0000000
            D   1   1.00
                  0.3330000              1.0000000
            D   1   1.00
                  0.1110000              1.0000000
            F   1   1.00
                  0.2440000              1.0000000
            ****
            -Si     0
            S   13   1.00
             254900.0000000              0.625101D-04
              38190.0000000              0.485553D-03
               8690.0000000              0.254516D-02
               2462.0000000              0.105866D-01
                804.8000000              0.368787D-01
                291.3000000              0.107479D+00
                113.6000000              0.247936D+00
                 46.7500000              0.390927D+00
                 19.8200000              0.302026D+00
                  7.7080000              0.559236D-01
                  3.3400000             -0.402406D-02
                  1.4020000              0.258030D-02
                  0.2070000              0.607930D-03
            S   13   1.00
             254900.0000000             -0.166370D-04
              38190.0000000             -0.129310D-03
               8690.0000000             -0.678828D-03
               2462.0000000             -0.284117D-02
                804.8000000             -0.100551D-01
                291.3000000             -0.305774D-01
                113.6000000             -0.777256D-01
                 46.7500000             -0.154236D+00
                 19.8200000             -0.180368D+00
                  7.7080000              0.798218D-01
                  3.3400000              0.547441D+00
                  1.4020000              0.480119D+00
                  0.2070000             -0.106996D-01
            S   13   1.00
             254900.0000000              0.426257D-05
              38190.0000000              0.331062D-04
               8690.0000000              0.174015D-03
               2462.0000000              0.727574D-03
                804.8000000              0.258333D-02
                291.3000000              0.786354D-02
                113.6000000              0.202155D-01
                 46.7500000              0.407320D-01
                 19.8200000              0.499358D-01
                  7.7080000             -0.249396D-01
                  3.3400000             -0.190350D+00
                  1.4020000             -0.318350D+00
                  0.2070000              0.681180D+00
            S   1   1.00
                  0.4387000              1.0000000
            S   1   1.00
                  0.0794400              1.0000000
            P   7   1.00
                481.5000000              0.192045D-02
                113.9000000              0.153552D-01
                 36.2300000              0.713991D-01
                 13.3400000              0.213052D+00
                  5.2520000              0.390354D+00
                  2.1200000              0.393721D+00
                  0.2528000              0.395630D-02
            P   7   1.00
                481.5000000             -0.405220D-03
                113.9000000             -0.335896D-02
                 36.2300000             -0.152860D-01
                 13.3400000             -0.489218D-01
                  5.2520000             -0.855008D-01
                  2.1200000             -0.112137D+00
                  0.2528000              0.551919D+00
            P   1   1.00
                  0.8561000              1.0000000
            P   1   1.00
                  0.0788900              1.0000000
            D   1   1.00
                  2.3030000              1.0000000
            D   1   1.00
                  0.4760000              1.0000000
            D   1   1.00
                  0.1600000              1.0000000
            F   1   1.00
                  0.3360000              1.0000000
            ****
            -P     0
            S   13   1.00
             312400.0000000              0.576960D-04
              46800.0000000              0.448296D-03
              10650.0000000              0.234939D-02
               3018.0000000              0.978265D-02
                986.8000000              0.341467D-01
                357.4000000              0.100204D+00
                139.6000000              0.234372D+00
                 57.6300000              0.382434D+00
                 24.6000000              0.318088D+00
                 10.1200000              0.707788D-01
                  4.2830000             -0.181799D-02
                  1.8050000              0.216180D-02
                  0.2782000              0.432297D-03
            S   13   1.00
             312400.0000000             -0.156709D-04
              46800.0000000             -0.121724D-03
              10650.0000000             -0.639672D-03
               3018.0000000             -0.267426D-02
                986.8000000             -0.949831D-02
                357.4000000             -0.289349D-01
                139.6000000             -0.745121D-01
                 57.6300000             -0.149938D+00
                 24.6000000             -0.189467D+00
                 10.1200000              0.363270D-01
                  4.2830000              0.528816D+00
                  1.8050000              0.519115D+00
                  0.2782000             -0.925695D-02
            S   13   1.00
             312400.0000000              0.430631D-05
              46800.0000000              0.334194D-04
              10650.0000000              0.175885D-03
               3018.0000000              0.734340D-03
                986.8000000              0.261775D-02
                357.4000000              0.797852D-02
                139.6000000              0.207940D-01
                 57.6300000              0.424446D-01
                 24.6000000              0.563436D-01
                 10.1200000             -0.127358D-01
                  4.2830000             -0.196495D+00
                  1.8050000             -0.353555D+00
                  0.2782000              0.700912D+00
            S   1   1.00
                  0.6158000              1.0000000
            S   1   1.00
                  0.1055000              1.0000000
            P   7   1.00
                504.9000000              0.233728D-02
                119.4000000              0.185410D-01
                 37.9600000              0.849693D-01
                 13.9500000              0.244615D+00
                  5.4570000              0.422766D+00
                  2.1770000              0.368439D+00
                  0.2877000             -0.379005D-02
            P   7   1.00
                504.9000000             -0.555236D-03
                119.4000000             -0.445913D-02
                 37.9600000             -0.206350D-01
                 13.9500000             -0.617694D-01
                  5.4570000             -0.108924D+00
                  2.1770000             -0.105599D+00
                  0.2877000              0.576981D+00
            P   1   1.00
                  0.8010000              1.0000000
            P   1   1.00
                  0.0971400              1.0000000
            D   1   1.00
                  3.1200000              1.0000000
            D   1   1.00
                  0.6480000              1.0000000
            D   1   1.00
                  0.2180000              1.0000000
            F   1   1.00
                  0.4520000              1.0000000
            ****
            -S     0
            S   13   1.00
             374100.0000000              0.542140D-04
              56050.0000000              0.420855D-03
              12760.0000000              0.220698D-02
               3615.0000000              0.919258D-02
               1183.0000000              0.321123D-01
                428.8000000              0.946683D-01
                167.8000000              0.223630D+00
                 69.4700000              0.374393D+00
                 29.8400000              0.329108D+00
                 12.7200000              0.847038D-01
                  5.2440000              0.440851D-03
                  2.2190000              0.164827D-02
                  0.3490000              0.301306D-03
            S   13   1.00
             374100.0000000             -0.149837D-04
              56050.0000000             -0.116198D-03
              12760.0000000             -0.611583D-03
               3615.0000000             -0.255370D-02
               1183.0000000             -0.908708D-02
                428.8000000             -0.277045D-01
                167.8000000             -0.720020D-01
                 69.4700000             -0.146439D+00
                 29.8400000             -0.195150D+00
                 12.7200000              0.819193D-02
                  5.2440000              0.516601D+00
                  2.2190000              0.542178D+00
                  0.3490000             -0.918072D-02
            S   13   1.00
             374100.0000000              0.435066D-05
              56050.0000000              0.337140D-04
              12760.0000000              0.177674D-03
               3615.0000000              0.741116D-03
               1183.0000000              0.264591D-02
                428.8000000              0.807487D-02
                167.8000000              0.212276D-01
                 69.4700000              0.438323D-01
                 29.8400000              0.612716D-01
                 12.7200000             -0.361510D-02
                  5.2440000             -0.204510D+00
                  2.2190000             -0.381871D+00
                  0.3490000              0.714147D+00
            S   1   1.00
                  0.7767000              1.0000000
            S   1   1.00
                  0.1322000              1.0000000
            P   7   1.00
                574.4000000              0.242264D-02
                135.8000000              0.192796D-01
                 43.1900000              0.885401D-01
                 15.8700000              0.254654D+00
                  6.2080000              0.433984D+00
                  2.4830000              0.354953D+00
                  0.3229000             -0.502977D-02
            P   7   1.00
                574.4000000             -0.620102D-03
                135.8000000             -0.493882D-02
                 43.1900000             -0.232647D-01
                 15.8700000             -0.685195D-01
                  6.2080000             -0.123896D+00
                  2.4830000             -0.969499D-01
                  0.3229000              0.569394D+00
            P   1   1.00
                  0.8688000              1.0000000
            P   1   1.00
                  0.1098000              1.0000000
            D   1   1.00
                  3.7560000              1.0000000
            D   1   1.00
                  0.8120000              1.0000000
            D   1   1.00
                  0.2730000              1.0000000
            F   1   1.00
                  0.5570000              1.0000000
            ****
            -Cl     0
            S   13   1.00
             456100.0000000              0.492970D-04
              68330.0000000              0.383029D-03
              15550.0000000              0.200854D-02
               4405.0000000              0.838558D-02
               1439.0000000              0.294703D-01
                520.4000000              0.878325D-01
                203.1000000              0.211473D+00
                 83.9600000              0.365364D+00
                 36.2000000              0.340884D+00
                 15.8300000              0.102133D+00
                  6.3340000              0.311675D-02
                  2.6940000              0.105751D-02
                  0.4313000              0.156136D-03
            S   13   1.00
             456100.0000000             -0.138304D-04
              68330.0000000             -0.107279D-03
              15550.0000000             -0.565083D-03
               4405.0000000             -0.236135D-02
               1439.0000000             -0.845886D-02
                520.4000000             -0.259638D-01
                203.1000000             -0.686362D-01
                 83.9600000             -0.141874D+00
                 36.2000000             -0.199319D+00
                 15.8300000             -0.195662D-01
                  6.3340000              0.499741D+00
                  2.6940000              0.563736D+00
                  0.4313000             -0.835091D-02
            S   13   1.00
             456100.0000000              0.418546D-05
              68330.0000000              0.324395D-04
              15550.0000000              0.171105D-03
               4405.0000000              0.714176D-03
               1439.0000000              0.256705D-02
                520.4000000              0.788552D-02
                203.1000000              0.210867D-01
                 83.9600000              0.442264D-01
                 36.2000000              0.651670D-01
                 15.8300000              0.603012D-02
                  6.3340000             -0.206495D+00
                  2.6940000             -0.405871D+00
                  0.4313000              0.725661D+00
            S   1   1.00
                  0.9768000              1.0000000
            S   1   1.00
                  0.1625000              1.0000000
            P   7   1.00
                663.3000000              0.240448D-02
                156.8000000              0.192148D-01
                 49.9800000              0.885097D-01
                 18.4200000              0.256020D+00
                  7.2400000              0.436927D+00
                  2.9220000              0.350334D+00
                  0.3818000             -0.458423D-02
            P   7   1.00
                663.3000000             -0.652145D-03
                156.8000000             -0.519445D-02
                 49.9800000             -0.246938D-01
                 18.4200000             -0.728167D-01
                  7.2400000             -0.134030D+00
                  2.9220000             -0.947742D-01
                  0.3818000              0.564667D+00
            P   1   1.00
                  1.0220000              1.0000000
            P   1   1.00
                  0.1301000              1.0000000
            D   1   1.00
                  4.6100000              1.0000000
            D   1   1.00
                  1.0110000              1.0000000
            D   1   1.00
                  0.3390000              1.0000000
            F   1   1.00
                  0.7060000              1.0000000
            ****
            -Ar     0
            S   13   1.00
             545000.0000000              0.455828D-04
              81640.0000000              0.354108D-03
              18580.0000000              0.185797D-02
               5261.0000000              0.776851D-02
               1717.0000000              0.274232D-01
                619.9000000              0.823836D-01
                241.6000000              0.201230D+00
                 99.7900000              0.356781D+00
                 43.1500000              0.349563D+00
                 19.1400000              0.118266D+00
                  7.4880000              0.560190D-02
                  3.2050000              0.483473D-03
                  0.5204000              0.292025D-04
            S   13   1.00
             545000.0000000             -0.129551D-04
              81640.0000000             -0.100428D-03
              18580.0000000             -0.529583D-03
               5261.0000000             -0.221396D-02
               1717.0000000             -0.796845D-02
                619.9000000             -0.245803D-01
                241.6000000             -0.657798D-01
                 99.7900000             -0.137942D+00
                 43.1500000             -0.201630D+00
                 19.1400000             -0.412834D-01
                  7.4880000              0.484680D+00
                  3.2050000              0.579224D+00
                  0.5204000             -0.727553D-02
            S   13   1.00
             545000.0000000              0.404990D-05
              81640.0000000              0.313691D-04
              18580.0000000              0.165646D-03
               5261.0000000              0.691662D-03
               1717.0000000              0.249790D-02
                619.9000000              0.771074D-02
                241.6000000              0.208714D-01
                 99.7900000              0.443965D-01
                 43.1500000              0.680224D-01
                 19.1400000              0.141350D-01
                  7.4880000             -0.207489D+00
                  3.2050000             -0.425045D+00
                  0.5204000              0.733627D+00
            S   1   1.00
                  1.1960000              1.0000000
            S   1   1.00
                  0.1954000              1.0000000
            P   7   1.00
                761.8000000              0.236976D-02
                180.2000000              0.190199D-01
                 57.5000000              0.880807D-01
                 21.2400000              0.256377D+00
                  8.3880000              0.438711D+00
                  3.4160000              0.347569D+00
                  0.4523000             -0.523882D-02
            P   7   1.00
                761.8000000             -0.667211D-03
                180.2000000             -0.532717D-02
                 57.5000000             -0.255494D-01
                 21.2400000             -0.757197D-01
                  8.3880000             -0.141133D+00
                  3.4160000             -0.932768D-01
                  0.4523000              0.562450D+00
            P   1   1.00
                  1.2060000              1.0000000
            P   1   1.00
                  0.1545000              1.0000000
            D   1   1.00
                  5.5510000              1.0000000
            D   1   1.00
                  1.2350000              1.0000000
            D   1   1.00
                  0.4120000              1.0000000
            F   1   1.00
                  0.8900000              1.0000000
            ****
 Initial command:
 /usr/local/apps/g09/l1.exe "/wrk/irikura/Gau-32449.inp" -scrdir="/wrk/irikura/"
 Entering Link 1 = /usr/local/apps/g09/l1.exe PID=     32451.
  
 Copyright (c) 1988,1990,1992,1993,1995,1998,2003,2009,2013,
            Gaussian, Inc.  All Rights Reserved.
  
 This is part of the Gaussian(R) 09 program.  It is based on
 the Gaussian(R) 03 system (copyright 2003, Gaussian, Inc.),
 the Gaussian(R) 98 system (copyright 1998, Gaussian, Inc.),
 the Gaussian(R) 94 system (copyright 1995, Gaussian, Inc.),
 the Gaussian 92(TM) system (copyright 1992, Gaussian, Inc.),
 the Gaussian 90(TM) system (copyright 1990, Gaussian, Inc.),
 the Gaussian 88(TM) system (copyright 1988, Gaussian, Inc.),
 the Gaussian 86(TM) system (copyright 1986, Carnegie Mellon
 University), and the Gaussian 82(TM) system (copyright 1983,
 Carnegie Mellon University). Gaussian is a federally registered
 trademark of Gaussian, Inc.
  
 This software contains proprietary and confidential information,
 including trade secrets, belonging to Gaussian, Inc.
  
 This software is provided under written license and may be
 used, copied, transmitted, or stored only in accord with that
 written license.
  
 The following legend is applicable only to US Government
 contracts under FAR:
  
                    RESTRICTED RIGHTS LEGEND
  
 Use, reproduction and disclosure by the US Government is
 subject to restrictions as set forth in subparagraphs (a)
 and (c) of the Commercial Computer Software - Restricted
 Rights clause in FAR 52.227-19.
  
 Gaussian, Inc.
 340 Quinnipiac St., Bldg. 40, Wallingford CT 06492
  
  
 ---------------------------------------------------------------
 Warning -- This program may not be used in any manner that
 competes with the business of Gaussian, Inc. or will provide
 assistance to any competitor of Gaussian, Inc.  The licensee
 of this program is prohibited from giving any competitor of
 Gaussian, Inc. access to this program.  By using this program,
 the user acknowledges that Gaussian, Inc. is engaged in the
 business of creating and licensing software in the field of
 computational chemistry and represents and warrants to the
 licensee that it is not a competitor of Gaussian, Inc. and that
 it will not use this program in any manner prohibited above.
 ---------------------------------------------------------------
  

 Cite this work as:
 Gaussian 09, Revision D.01,
 M. J. Frisch, G. W. Trucks, H. B. Schlegel, G. E. Scuseria, 
 M. A. Robb, J. R. Cheeseman, G. Scalmani, V. Barone, B. Mennucci, 
 G. A. Petersson, H. Nakatsuji, M. Caricato, X. Li, H. P. Hratchian, 
 A. F. Izmaylov, J. Bloino, G. Zheng, J. L. Sonnenberg, M. Hada, 
 M. Ehara, K. Toyota, R. Fukuda, J. Hasegawa, M. Ishida, T. Nakajima, 
 Y. Honda, O. Kitao, H. Nakai, T. Vreven, J. A. Montgomery, Jr., 
 J. E. Peralta, F. Ogliaro, M. Bearpark, J. J. Heyd, E. Brothers, 
 K. N. Kudin, V. N. Staroverov, T. Keith, R. Kobayashi, J. Normand, 
 K. Raghavachari, A. Rendell, J. C. Burant, S. S. Iyengar, J. Tomasi, 
 M. Cossi, N. Rega, J. M. Millam, M. Klene, J. E. Knox, J. B. Cross, 
 V. Bakken, C. Adamo, J. Jaramillo, R. Gomperts, R. E. Stratmann, 
 O. Yazyev, A. J. Austin, R. Cammi, C. Pomelli, J. W. Ochterski, 
 R. L. Martin, K. Morokuma, V. G. Zakrzewski, G. A. Voth, 
 P. Salvador, J. J. Dannenberg, S. Dapprich, A. D. Daniels, 
 O. Farkas, J. B. Foresman, J. V. Ortiz, J. Cioslowski, 
 and D. J. Fox, Gaussian, Inc., Wallingford CT, 2013.
 
 ******************************************
 Gaussian 09:  ES64L-G09RevD.01 24-Apr-2013
                19-May-2017 
 ******************************************
 %chk=BiFClBrIAt.chk
 %nprocs=8
 Will use up to    8 processors via shared memory.
 %mem=2000mw
 ---------------------------------------------------------------
 # CCSD(T,maxcyc=100)/GEN gfinput geom=check scf=xqc pseudo=read
 ---------------------------------------------------------------
 1/29=2,38=1/1;
 2/12=2,40=1/2;
 3/5=7,11=9,14=-4,16=1,17=8,24=10,25=1,30=1/1,2,3;
 4//1;
 5/5=2,8=3,13=1,38=5/2,8;
 8/6=4,9=120000,10=1/1,4;
 9/5=7,6=100,14=2/13;
 6/7=2,8=2,9=2,10=2/1;
 99/5=1,9=1/99;
 -----------------------------------------------------
 BEB step 8: low-spin CCSD(T) for cation of BiFClBrIAt
 -----------------------------------------------------
 Structure from the checkpoint file:  "BiFClBrIAt.chk"
 Charge =  1 Multiplicity = 2
 Redundant internal coordinates found in file.
 Bi,0,-0.9365127913,0.6634957207,-0.0229682709
 F,0,-0.9148015666,0.6506383511,2.0117615586
 Cl,0,-0.9482875525,0.673187048,-2.5888735473
 Br,0,-2.2655976762,2.8869666536,0.0529192917
 I,0,-2.4412175827,-1.7333450332,0.0647936077
 At,0,1.9930976294,0.7281258298,0.0723673602
 Recover connectivity data from disk.
                          Input orientation:                          
 ---------------------------------------------------------------------
 Center     Atomic      Atomic             Coordinates (Angstroms)
 Number     Number       Type             X           Y           Z
 ---------------------------------------------------------------------
      1         83           0       -0.936513    0.663496   -0.022968
      2          9           0       -0.914802    0.650638    2.011762
      3         17           0       -0.948288    0.673187   -2.588874
      4         35           0       -2.265598    2.886967    0.052919
      5         53           0       -2.441218   -1.733345    0.064794
      6         85           0        1.993098    0.728126    0.072367
 ---------------------------------------------------------------------
                    Distance matrix (angstroms):
                    1          2          3          4          5
     1  Bi   0.000000
     2  F    2.034886   0.000000
     3  Cl   2.565951   4.600812   0.000000
     4  Br   2.591534   3.265406   3.689877   0.000000
     5  I    2.831375   3.435696   3.881003   4.623663   0.000000
     6  At   2.931874   3.496160   3.966985   4.774668   5.071691
                    6
     6  At   0.000000
 Stoichiometry    AtBiBrClFI(1+,2)
 Framework group  C1[X(AtBiBrClFI)]
 Deg. of freedom    12
 Full point group                 C1      NOp   1
 Largest Abelian subgroup         C1      NOp   1
 Largest concise Abelian subgroup C1      NOp   1
                         Standard orientation:                         
 ---------------------------------------------------------------------
 Center     Atomic      Atomic             Coordinates (Angstroms)
 Number     Number       Type             X           Y           Z
 ---------------------------------------------------------------------
      1         83           0        0.374064    0.267985   -0.054105
      2          9           0        0.313649    0.165948   -2.085534
      3         17           0        0.437083    0.386067    2.508352
      4         35           0        1.029333    2.767885   -0.246893
      5         53           0        2.484600   -1.618625   -0.109103
      6         85           0       -2.458953   -0.486921   -0.058326
 ---------------------------------------------------------------------
 Rotational constants (GHZ):      0.3835675      0.2029668      0.1585664
 General basis read from cards:  (5D, 7F)
 ======================================================================================================
                                       Pseudopotential Parameters
 ======================================================================================================
  Center     Atomic      Valence      Angular      Power
  Number     Number     Electrons     Momentum     of R      Exponent        Coefficient   SO-Coeffient
 ======================================================================================================
    1         83            5
                                      H and up 
                                                     2        1.0000000        0.00000000    0.00000000
                                      S - H
                                                     2        0.1611520       -0.16198800    0.00000000
                                                     2        1.5098350       14.03169000    0.00000000
                                                     2       10.0000000      122.04740100    0.00000000
                                      P - H
                                                     2        0.7604900       -6.18852600    0.00000000
                                                     2        1.4264150       51.04586800    0.00000000
                                      D - H
                                                     2        0.7802260       20.53580400    0.00000000
                                                     2        0.2600750       -0.13619600    0.00000000
                                      F - H
                                                     2        0.9736080       -6.41422600    0.00000000
                                      G - H
                                                     2        1.0881950       -6.65606400    0.00000000
    2          9
                                   No pseudopotential on this center.
    3         17
                                   No pseudopotential on this center.
    4         35
                                   No pseudopotential on this center.
    5         53            7
                                      G and up 
                                                     2        1.0000000        0.00000000    0.00000000
                                      S - G
                                                     2        3.5112000       83.11386300    0.00000000
                                                     2        1.7556000        5.20187600    0.00000000
                                      P - G
                                                     2        2.9688000       82.81110900    0.00000000
                                                     2        1.4844000        3.37968200    0.00000000
                                      D - G
                                                     2        1.9066000       10.30427700    0.00000000
                                                     2        0.9533000        7.58803200    0.00000000
                                      F - G
                                                     2        2.3075000      -21.47793600    0.00000000
    6         85            7
                                      H and up 
                                                     2        1.0000000        0.00000000    0.00000000
                                      S - H
                                                     2        0.9223860       -5.52846100    0.00000000
                                                     2        1.7819150       39.56886900    0.00000000
                                                     2       10.0000000      170.71138600    0.00000000
                                      P - H
                                                     2        0.7242910       -2.29538700    0.00000000
                                                     2        1.3638600       25.49292000    0.00000000
                                      D - H
                                                     2        0.6359720        4.86510700    0.00000000
                                                     2        1.2719430       14.57941300    0.00000000
                                      F - H
                                                     2        1.1541080       -6.85786700    0.00000000
                                      G - H
                                                     2        1.3451150       -7.61303900    0.00000000
 ======================================================================================================
 AO basis set in the form of general basis input (Overlap normalization):
      1 0
 S   3 1.00       0.000000000000
      0.1425388000D+01  0.1551577849D+00
      0.9849140000D+00 -0.9337229251D+00
      0.2525140000D+00  0.1433392723D+01
 S   1 1.00       0.000000000000
      0.1006190000D+00  0.1000000000D+01
 P   3 1.00       0.000000000000
      0.1517283000D+01  0.5994662445D+00
      0.1253307000D+01 -0.8875967497D+00
      0.2079490000D+00  0.1121281412D+01
 P   1 1.00       0.000000000000
      0.6943300000D-01  0.1000000000D+01
 D   1 1.00       0.000000000000
      0.1700000000D+00  0.1000000000D+01
 ****
      2 0
 S   7 1.00       0.000000000000
      0.1950000000D+05  0.5190024441D-03
      0.2923000000D+04  0.4015781354D-02
      0.6645000000D+03  0.2067746110D-01
      0.1875000000D+03  0.8086901703D-01
      0.6062000000D+02  0.2358075463D+00
      0.2142000000D+02  0.4425823060D+00
      0.7950000000D+01  0.3569628672D+00
 S   6 1.00       0.000000000000
      0.6645000000D+03 -0.3735980873D-04
      0.1875000000D+03 -0.1277472297D-02
      0.6062000000D+02 -0.1082201399D-01
      0.2142000000D+02 -0.7004820894D-01
      0.7950000000D+01 -0.1697466078D+00
      0.8815000000D+00  0.1073026608D+01
 S   1 1.00       0.000000000000
      0.2257000000D+01  0.1000000000D+01
 S   1 1.00       0.000000000000
      0.3041000000D+00  0.1000000000D+01
 P   3 1.00       0.000000000000
      0.4388000000D+02  0.4190462069D-01
      0.9926000000D+01  0.2626978417D+00
      0.2930000000D+01  0.7977593735D+00
 P   1 1.00       0.000000000000
      0.9132000000D+00  0.1000000000D+01
 P   1 1.00       0.000000000000
      0.2672000000D+00  0.1000000000D+01
 D   1 1.00       0.000000000000
      0.3107000000D+01  0.1000000000D+01
 D   1 1.00       0.000000000000
      0.8550000000D+00  0.1000000000D+01
 F   1 1.00       0.000000000000
      0.1917000000D+01  0.1000000000D+01
 ****
      3 0
 S  11 1.00       0.000000000000
      0.4561000000D+06  0.4931994985D-04
      0.6833000000D+05  0.3832069654D-03
      0.1555000000D+05  0.2009478163D-02
      0.4405000000D+04  0.8389501239D-02
      0.1439000000D+04  0.2948439504D-01
      0.5204000000D+03  0.8787599478D-01
      0.2031000000D+03  0.2115897588D+00
      0.8396000000D+02  0.3656115542D+00
      0.3620000000D+02  0.3412463495D+00
      0.1583000000D+02  0.1021625703D+00
      0.6334000000D+01  0.2142500341D-02
 S   9 1.00       0.000000000000
      0.4405000000D+04 -0.2204447291D-05
      0.1439000000D+04 -0.1711436735D-03
      0.5204000000D+03 -0.1279090931D-02
      0.2031000000D+03 -0.9329228843D-02
      0.8396000000D+02 -0.3989041931D-01
      0.3620000000D+02 -0.1055355078D+00
      0.1583000000D+02  0.9362179729D-02
      0.6334000000D+01  0.5105109260D+00
      0.2694000000D+01  0.5731504921D+00
 S   8 1.00       0.000000000000
      0.1439000000D+04  0.4124162199D-05
      0.2031000000D+03  0.2104155934D-03
      0.8396000000D+02  0.8480710786D-03
      0.3620000000D+02  0.4599171473D-02
      0.1583000000D+02  0.4508898864D-03
      0.6334000000D+01 -0.7367222261D-01
      0.2694000000D+01 -0.3620654654D+00
      0.4313000000D+00  0.1166145419D+01
 S   1 1.00       0.000000000000
      0.9768000000D+00  0.1000000000D+01
 S   1 1.00       0.000000000000
      0.1625000000D+00  0.1000000000D+01
 P   6 1.00       0.000000000000
      0.6633000000D+03  0.2472064066D-02
      0.1568000000D+03  0.1975502338D-01
      0.4998000000D+02  0.9099173548D-01
      0.1842000000D+02  0.2631878341D+00
      0.7240000000D+01  0.4490780732D+00
      0.2922000000D+01  0.3601830723D+00
 P   6 1.00       0.000000000000
      0.1568000000D+03  0.3027166250D-04
      0.4998000000D+02 -0.1225086593D-02
      0.1842000000D+02 -0.6015248783D-02
      0.7240000000D+01 -0.2764176479D-01
      0.2922000000D+01  0.4338088816D-03
      0.3818000000D+00  0.1003073285D+01
 P   1 1.00       0.000000000000
      0.1022000000D+01  0.1000000000D+01
 P   1 1.00       0.000000000000
      0.1301000000D+00  0.1000000000D+01
 D   1 1.00       0.000000000000
      0.4610000000D+01  0.1000000000D+01
 D   1 1.00       0.000000000000
      0.1011000000D+01  0.1000000000D+01
 D   1 1.00       0.000000000000
      0.3390000000D+00  0.1000000000D+01
 F   1 1.00       0.000000000000
      0.7060000000D+00  0.1000000000D+01
 ****
      4 0
 S  15 1.00       0.000000000000
      0.1063900000D+08  0.5896745182D-05
      0.1593400000D+07  0.4607527397D-04
      0.3626100000D+06  0.2420703426D-03
      0.1027000000D+06  0.1022052987D-02
      0.3350100000D+05  0.3709304990D-02
      0.1209300000D+05  0.1197203072D-01
      0.4715900000D+04  0.3467357263D-01
      0.1955600000D+04  0.8907294870D-01
      0.8526100000D+03  0.1933345489D+00
      0.3876700000D+03  0.3206639187D+00
      0.1826800000D+03  0.3295807128D+00
      0.8824500000D+02  0.1492507898D+00
      0.3926300000D+02  0.1557648670D-01
      0.9405700000D+01  0.7937476363D-03
      0.1899500000D+01  0.2652217748D-03
 S  12 1.00       0.000000000000
      0.3350100000D+05 -0.5685368484D-05
      0.1209300000D+05 -0.3526665744D-04
      0.4715900000D+04 -0.3275393771D-03
      0.1955600000D+04 -0.1876292762D-02
      0.8526100000D+03 -0.1014145274D-01
      0.3876700000D+03 -0.3807024403D-01
      0.1826800000D+03 -0.9575369097D-01
      0.8824500000D+02 -0.4738405981D-01
      0.3926300000D+02  0.3475779953D+00
      0.1923400000D+02  0.5739455543D+00
      0.9405700000D+01  0.2142220792D+00
      0.1899500000D+01 -0.1029289626D-01
 S  10 1.00       0.000000000000
      0.4715900000D+04  0.7181053986D-05
      0.8526100000D+03  0.1208285928D-03
      0.3876700000D+03  0.4428524631D-03
      0.1826800000D+03  0.3051630834D-02
      0.8824500000D+02  0.3695717761D-02
      0.3926300000D+02 -0.4417925651D-01
      0.1923400000D+02 -0.2337907175D+00
      0.9405700000D+01 -0.4890374351D-01
      0.4160100000D+01  0.6443747050D+00
      0.1899500000D+01  0.5444241228D+00
 S  10 1.00       0.000000000000
      0.4715900000D+04  0.2458139072D-05
      0.8526100000D+03  0.1215428423D-04
      0.3876700000D+03 -0.4208452873D-04
      0.8824500000D+02 -0.2714111361D-03
      0.3926300000D+02  0.1883352367D-02
      0.1923400000D+02  0.1040094697D-01
      0.9405700000D+01  0.6185749577D-02
      0.4160100000D+01 -0.1115565467D+00
      0.1899500000D+01 -0.4479703046D+00
      0.3011400000D+00  0.1183147328D+01
 S   1 1.00       0.000000000000
      0.6047200000D+00  0.1000000000D+01
 S   1 1.00       0.000000000000
      0.1251500000D+00  0.1000000000D+01
 P   9 1.00       0.000000000000
      0.8676500000D+04  0.4370799928D-03
      0.2055900000D+04  0.3793550623D-02
      0.6662300000D+03  0.2054406734D-01
      0.2531000000D+03  0.7954593888D-01
      0.1061200000D+03  0.2186022953D+00
      0.4724200000D+02  0.3893039098D+00
      0.2182500000D+02  0.3606681106D+00
      0.9968400000D+01  0.1106779629D+00
      0.1998200000D+01 -0.1348076923D-02
 P   9 1.00       0.000000000000
      0.8676500000D+04  0.1001037777D-05
      0.6662300000D+03 -0.7061147843D-04
      0.2531000000D+03 -0.1155608171D-02
      0.1061200000D+03 -0.7097556197D-02
      0.4724200000D+02 -0.2449371243D-01
      0.2182500000D+02 -0.1019825987D-01
      0.9968400000D+01  0.2198547198D+00
      0.4517100000D+01  0.5157410171D+00
      0.1998200000D+01  0.3674940906D+00
 P   8 1.00       0.000000000000
      0.6662300000D+03 -0.2334848891D-04
      0.1061200000D+03 -0.3277965334D-03
      0.4724200000D+02  0.4194389334D-03
      0.2182500000D+02 -0.2206917161D-02
      0.9968400000D+01 -0.6452244639D-02
      0.4517100000D+01 -0.4684587242D-01
      0.1998200000D+01 -0.4091966659D-01
      0.2814500000D+00  0.1018158888D+01
 P   1 1.00       0.000000000000
      0.7098800000D+00  0.1000000000D+01
 P   1 1.00       0.000000000000
      0.1020400000D+00  0.1000000000D+01
 D   7 1.00       0.000000000000
      0.4038300000D+03  0.1517447384D-02
      0.1211700000D+03  0.1305311701D-01
      0.4634500000D+02  0.5978847757D-01
      0.1972100000D+02  0.1756315563D+00
      0.8862400000D+01  0.3281647864D+00
      0.3996200000D+01  0.3960507802D+00
      0.1763600000D+01  0.2819964600D+00
 D   1 1.00       0.000000000000
      0.7061900000D+00  0.1000000000D+01
 D   1 1.00       0.000000000000
      0.2639000000D+00  0.1000000000D+01
 F   1 1.00       0.000000000000
      0.5515000000D+00  0.1000000000D+01
 ****
      5 0
 S   3 1.00       0.000000000000
      0.2122765000D+01  0.2063429899D+01
      0.1770481000D+01 -0.2869526473D+01
      0.3130840000D+00  0.1404747074D+01
 S   1 1.00       0.000000000000
      0.1240710000D+00  0.1000000000D+01
 P   3 1.00       0.000000000000
      0.2432887000D+01  0.7732753148D+00
      0.2137249000D+01 -0.1020833156D+01
      0.3145460000D+00  0.1095666871D+01
 P   1 1.00       0.000000000000
      0.1049450000D+00  0.1000000000D+01
 P   1 1.00       0.000000000000
      0.3264100000D-01  0.1000000000D+01
 D   1 1.00       0.000000000000
      0.3020000000D+00  0.1000000000D+01
 ****
      6 0
 S   3 1.00       0.000000000000
      0.1962420000D+01  0.7836497076D+00
      0.1387359000D+01 -0.1548543810D+01
      0.2962310000D+00  0.1439673124D+01
 S   1 1.00       0.000000000000
      0.1041270000D+00  0.1000000000D+01
 P   3 1.00       0.000000000000
      0.2202138000D+01  0.1075076082D+00
      0.1338791000D+01 -0.3297162076D+00
      0.2620810000D+00  0.1103331080D+01
 P   1 1.00       0.000000000000
      0.9626800000D-01  0.1000000000D+01
 P   1 1.00       0.000000000000
      0.3784900000D-01  0.1000000000D+01
 D   1 1.00       0.000000000000
      0.2300000000D+00  0.1000000000D+01
 ****

 There are   177 symmetry adapted cartesian basis functions of A   symmetry.
 There are   157 symmetry adapted basis functions of A   symmetry.
   157 basis functions,   421 primitive gaussians,   177 cartesian basis functions
    40 alpha electrons       39 beta electrons
       nuclear repulsion energy       343.4458616690 Hartrees.
 NAtoms=    6 NActive=    6 NUniq=    6 SFac= 1.00D+00 NAtFMM=   60 NAOKFM=F Big=F
 Integral buffers will be    131072 words long.
 Raffenetti 2 integral format.
 Two-electron integral symmetry is turned on.
 One-electron integrals computed using PRISM.
   1 Symmetry operations used in ECPInt.
 ECPInt:  NShTT=    1540 NPrTT=   18166 LenC2=    1496 LenP2D=   11904.
 LDataN:  DoStor=T MaxTD1= 8 Len=  415
 NBasis=   157 RedAO= T EigKep=  8.89D-03  NBF=   157
 NBsUse=   157 1.00D-06 EigRej= -1.00D+00 NBFU=   157
 ExpMin= 3.26D-02 ExpMax= 1.06D+07 ExpMxC= 1.21D+04 IAcc=3 IRadAn=         5 AccDes= 0.00D+00
 Harris functional with IExCor=  205 and IRadAn=       5 diagonalized for initial guess.
 HarFok:  IExCor=  205 AccDes= 0.00D+00 IRadAn=         5 IDoV= 1 UseB2=F ITyADJ=14
 ICtDFT=  3500011 ScaDFX=  1.000000  1.000000  1.000000  1.000000
 Defaulting to unpruned grid for atomic number  83.
 Defaulting to unpruned grid for atomic number  83.
 Defaulting to unpruned grid for atomic number  83.
 Defaulting to unpruned grid for atomic number  83.
 Defaulting to unpruned grid for atomic number  83.
 Defaulting to unpruned grid for atomic number  83.
 Defaulting to unpruned grid for atomic number  83.
 Defaulting to unpruned grid for atomic number  83.
 FoFCou: FMM=F IPFlag=           0 FMFlag=      100000 FMFlg1=           0
         NFxFlg=           0 DoJE=T BraDBF=F KetDBF=T FulRan=T
         wScrn=  0.000000 ICntrl=     500 IOpCl=  0 I1Cent=   200000004 NGrid=           0
         NMat0=    1 NMatS0=      1 NMatT0=    0 NMatD0=    1 NMtDS0=    0 NMtDT0=    0
 Petite list used in FoFCou.
 Initial guess <Sx>= 0.0000 <Sy>= 0.0000 <Sz>= 0.5000 <S**2>= 0.7500 S= 0.5000
 Keep R1 and R2 ints in memory in canonical form, NReq=157293466.
 Requested convergence on RMS density matrix=1.00D-08 within  64 cycles.
 Requested convergence on MAX density matrix=1.00D-06.
 Requested convergence on             energy=1.00D-06.
 No special actions if energy rises.
 Rare condition: small coef for last iteration:  0.000D+00
 SCF Done:  E(UHF) =  -3158.39575637     A.U. after   51 cycles
            NFock= 51  Conv=0.73D-08     -V/T= 2.0061
 <Sx>= 0.0000 <Sy>= 0.0000 <Sz>= 0.5000 <S**2>= 0.7901 S= 0.5198
 <L.S>= 0.000000000000E+00
 Annihilation of the first spin contaminant:
 S**2 before annihilation     0.7901,   after     0.7506
 QCSCF skips out because SCF is already converged.
 ExpMin= 3.26D-02 ExpMax= 1.06D+07 ExpMxC= 1.21D+04 IAcc=3 IRadAn=         5 AccDes= 0.00D+00
 HarFok:  IExCor=  205 AccDes= 0.00D+00 IRadAn=         5 IDoV=-2 UseB2=F ITyADJ=14
 ICtDFT= 12500011 ScaDFX=  1.000000  1.000000  1.000000  1.000000
 Defaulting to unpruned grid for atomic number  83.
 Defaulting to unpruned grid for atomic number  83.
 Defaulting to unpruned grid for atomic number  83.
 Defaulting to unpruned grid for atomic number  83.
 Defaulting to unpruned grid for atomic number  83.
 Defaulting to unpruned grid for atomic number  83.
 Defaulting to unpruned grid for atomic number  83.
 Defaulting to unpruned grid for atomic number  83.
 Range of M.O.s used for correlation:    16   157
 NBasis=   157 NAE=    40 NBE=    39 NFC=    15 NFV=     0
 NROrb=    142 NOA=    25 NOB=    24 NVA=   117 NVB=   118
 Semi-Direct transformation.
 ModeAB=           4 MOrb=            25 LenV=    2096287755
 LASXX=     31363125 LTotXX=    31363125 LenRXX=    64360375
 LTotAB=    32997250 MaxLAS=    52973100 LenRXY=           0
 NonZer=    95723500 LenScr=   144353280 LnRSAI=    52973100
 LnScr1=    80214016 LExtra=           0 Total=    341900771
 MaxDsk=          -1 SrtSym=           T ITran=            4
 JobTyp=1 Pass  1:  I=   1 to  25.
 (rs|ai) integrals will be sorted in core.
 ModeAB=           4 MOrb=            24 LenV=    2096287755
 LASXX=     30294606 LTotXX=    30294606 LenRXX=    51914802
 LTotAB=    21620196 MaxLAS=    50854176 LenRXY=           0
 NonZer=    82209408 LenScr=   124094464 LnRSAI=    50854176
 LnScr1=    77045760 LExtra=           0 Total=    303909202
 MaxDsk=          -1 SrtSym=           T ITran=            4
 JobTyp=2 Pass  1:  I=   1 to  24.
 (rs|ai) integrals will be sorted in core.
 SymMOI:  orbitals are not symmetric.
 Spin components of T(2) and E(2):
     alpha-alpha T2 =       0.4950140457D-01 E2=     -0.1317699684D+00
     alpha-beta  T2 =       0.2580493972D+00 E2=     -0.6871124093D+00
     beta-beta   T2 =       0.4629007119D-01 E2=     -0.1255074811D+00
 ANorm=    0.1163546678D+01
 E2 =    -0.9443898588D+00 EUMP2 =    -0.31593401462248D+04
 (S**2,0)=  0.79005D+00           (S**2,1)=  0.77802D+00
 E(PUHF)=      -0.31583982648D+04        E(PMP2)=      -0.31593422813D+04
 Keep R2 and R3 ints in memory in canonical form, NReq=156989584.
 Iterations= 100 Convergence= 0.100D-06
 Iteration Nr.   1
 **********************
 DD1Dir will call FoFMem   1 times, MxPair=      1776
 NAB=   600 NAA=   300 NBB=   276.
 E(PMP3)=      -0.31593698904D+04
 MP4(R+Q)=  0.23944192D-01
 E3=       -0.27990108D-01        EUMP3=      -0.31593681363D+04
 E4(DQ)=    0.19794657D-02        UMP4(DQ)=   -0.31593661569D+04
 E4(SDQ)=  -0.79969021D-02        UMP4(SDQ)=  -0.31593761332D+04
 DE(Corr)= -0.94805673     E(Corr)=     -3159.3438131    
 NORM(A)=   0.11721300D+01
 Iteration Nr.   2
 **********************
 DD1Dir will call FoFMem   1 times, MxPair=      1776
 NAB=   600 NAA=   300 NBB=   276.
 DE(Corr)= -0.97474618     E(CORR)=     -3159.3705025     Delta=-2.67D-02
 NORM(A)=   0.11842684D+01
 Iteration Nr.   3
 **********************
 DD1Dir will call FoFMem   1 times, MxPair=      1776
 NAB=   600 NAA=   300 NBB=   276.
 DE(Corr)= -0.97275264     E(CORR)=     -3159.3685090     Delta= 1.99D-03
 NORM(A)=   0.11885866D+01
 Iteration Nr.   4
 **********************
 DD1Dir will call FoFMem   1 times, MxPair=      1776
 NAB=   600 NAA=   300 NBB=   276.
 DE(Corr)= -0.97572838     E(CORR)=     -3159.3714847     Delta=-2.98D-03
 NORM(A)=   0.11911303D+01
 Iteration Nr.   5
 **********************
 DD1Dir will call FoFMem   1 times, MxPair=      1776
 NAB=   600 NAA=   300 NBB=   276.
 DE(Corr)= -0.97624809     E(CORR)=     -3159.3720045     Delta=-5.20D-04
 NORM(A)=   0.11931744D+01
 Iteration Nr.   6
 **********************
 DD1Dir will call FoFMem   1 times, MxPair=      1776
 NAB=   600 NAA=   300 NBB=   276.
 DE(Corr)= -0.97638975     E(CORR)=     -3159.3721461     Delta=-1.42D-04
 NORM(A)=   0.11945828D+01
 Iteration Nr.   7
 **********************
 DD1Dir will call FoFMem   1 times, MxPair=      1776
 NAB=   600 NAA=   300 NBB=   276.
 DE(Corr)= -0.97645399     E(CORR)=     -3159.3722104     Delta=-6.42D-05
 NORM(A)=   0.11949293D+01
 Iteration Nr.   8
 **********************
 DD1Dir will call FoFMem   1 times, MxPair=      1776
 NAB=   600 NAA=   300 NBB=   276.
 DE(Corr)= -0.97649303     E(CORR)=     -3159.3722494     Delta=-3.90D-05
 NORM(A)=   0.11952523D+01
 Iteration Nr.   9
 **********************
 DD1Dir will call FoFMem   1 times, MxPair=      1776
 NAB=   600 NAA=   300 NBB=   276.
 DE(Corr)= -0.97645312     E(CORR)=     -3159.3722095     Delta= 3.99D-05
 NORM(A)=   0.11953938D+01
 Iteration Nr.  10
 **********************
 DD1Dir will call FoFMem   1 times, MxPair=      1776
 NAB=   600 NAA=   300 NBB=   276.
 DE(Corr)= -0.97651091     E(CORR)=     -3159.3722673     Delta=-5.78D-05
 NORM(A)=   0.11954600D+01
 Iteration Nr.  11
 **********************
 DD1Dir will call FoFMem   1 times, MxPair=      1776
 NAB=   600 NAA=   300 NBB=   276.
 DE(Corr)= -0.97647964     E(CORR)=     -3159.3722360     Delta= 3.13D-05
 NORM(A)=   0.11955211D+01
 Iteration Nr.  12
 **********************
 DD1Dir will call FoFMem   1 times, MxPair=      1776
 NAB=   600 NAA=   300 NBB=   276.
 DE(Corr)= -0.97651265     E(CORR)=     -3159.3722690     Delta=-3.30D-05
 NORM(A)=   0.11955547D+01
 Iteration Nr.  13
 **********************
 DD1Dir will call FoFMem   1 times, MxPair=      1776
 NAB=   600 NAA=   300 NBB=   276.
 DE(Corr)= -0.97650671     E(CORR)=     -3159.3722631     Delta= 5.93D-06
 NORM(A)=   0.11955880D+01
 Iteration Nr.  14
 **********************
 DD1Dir will call FoFMem   1 times, MxPair=      1776
 NAB=   600 NAA=   300 NBB=   276.
 DE(Corr)= -0.97651011     E(CORR)=     -3159.3722665     Delta=-3.39D-06
 NORM(A)=   0.11956155D+01
 Iteration Nr.  15
 **********************
 DD1Dir will call FoFMem   1 times, MxPair=      1776
 NAB=   600 NAA=   300 NBB=   276.
 DE(Corr)= -0.97651167     E(CORR)=     -3159.3722680     Delta=-1.57D-06
 NORM(A)=   0.11956327D+01
 Iteration Nr.  16
 **********************
 DD1Dir will call FoFMem   1 times, MxPair=      1776
 NAB=   600 NAA=   300 NBB=   276.
 DE(Corr)= -0.97651290     E(CORR)=     -3159.3722693     Delta=-1.23D-06
 NORM(A)=   0.11956512D+01
 Iteration Nr.  17
 **********************
 DD1Dir will call FoFMem   1 times, MxPair=      1776
 NAB=   600 NAA=   300 NBB=   276.
 DE(Corr)= -0.97651130     E(CORR)=     -3159.3722677     Delta= 1.60D-06
 NORM(A)=   0.11956636D+01
 Iteration Nr.  18
 **********************
 DD1Dir will call FoFMem   1 times, MxPair=      1776
 NAB=   600 NAA=   300 NBB=   276.
 DE(Corr)= -0.97651555     E(CORR)=     -3159.3722719     Delta=-4.24D-06
 NORM(A)=   0.11956696D+01
 Iteration Nr.  19
 **********************
 DD1Dir will call FoFMem   1 times, MxPair=      1776
 NAB=   600 NAA=   300 NBB=   276.
 DE(Corr)= -0.97651250     E(CORR)=     -3159.3722689     Delta= 3.05D-06
 NORM(A)=   0.11956762D+01
 Iteration Nr.  20
 **********************
 DD1Dir will call FoFMem   1 times, MxPair=      1776
 NAB=   600 NAA=   300 NBB=   276.
 DE(Corr)= -0.97651513     E(CORR)=     -3159.3722715     Delta=-2.62D-06
 NORM(A)=   0.11956797D+01
 Iteration Nr.  21
 **********************
 DD1Dir will call FoFMem   1 times, MxPair=      1776
 NAB=   600 NAA=   300 NBB=   276.
 DE(Corr)= -0.97651419     E(CORR)=     -3159.3722706     Delta= 9.40D-07
 NORM(A)=   0.11956841D+01
 Iteration Nr.  22
 **********************
 DD1Dir will call FoFMem   1 times, MxPair=      1776
 NAB=   600 NAA=   300 NBB=   276.
 DE(Corr)= -0.97651467     E(CORR)=     -3159.3722710     Delta=-4.81D-07
 NORM(A)=   0.11956877D+01
 Iteration Nr.  23
 **********************
 DD1Dir will call FoFMem   1 times, MxPair=      1776
 NAB=   600 NAA=   300 NBB=   276.
 DE(Corr)= -0.97651474     E(CORR)=     -3159.3722711     Delta=-7.09D-08
 NORM(A)=   0.11956904D+01
 Iteration Nr.  24
 **********************
 DD1Dir will call FoFMem   1 times, MxPair=      1776
 NAB=   600 NAA=   300 NBB=   276.
 DE(Corr)= -0.97651517     E(CORR)=     -3159.3722715     Delta=-4.30D-07
 NORM(A)=   0.11956924D+01
 Iteration Nr.  25
 **********************
 DD1Dir will call FoFMem   1 times, MxPair=      1776
 NAB=   600 NAA=   300 NBB=   276.
 DE(Corr)= -0.97651458     E(CORR)=     -3159.3722709     Delta= 5.89D-07
 NORM(A)=   0.11956947D+01
 Iteration Nr.  26
 **********************
 DD1Dir will call FoFMem   1 times, MxPair=      1776
 NAB=   600 NAA=   300 NBB=   276.
 DE(Corr)= -0.97651570     E(CORR)=     -3159.3722721     Delta=-1.12D-06
 NORM(A)=   0.11956958D+01
 Iteration Nr.  27
 **********************
 DD1Dir will call FoFMem   1 times, MxPair=      1776
 NAB=   600 NAA=   300 NBB=   276.
 DE(Corr)= -0.97651480     E(CORR)=     -3159.3722712     Delta= 9.01D-07
 NORM(A)=   0.11956968D+01
 Iteration Nr.  28
 **********************
 DD1Dir will call FoFMem   1 times, MxPair=      1776
 NAB=   600 NAA=   300 NBB=   276.
 DE(Corr)= -0.97651537     E(CORR)=     -3159.3722717     Delta=-5.76D-07
 NORM(A)=   0.11956973D+01
 Iteration Nr.  29
 **********************
 DD1Dir will call FoFMem   1 times, MxPair=      1776
 NAB=   600 NAA=   300 NBB=   276.
 DE(Corr)= -0.97651518     E(CORR)=     -3159.3722715     Delta= 1.93D-07
 NORM(A)=   0.11956970D+01
 Iteration Nr.  30
 **********************
 DD1Dir will call FoFMem   1 times, MxPair=      1776
 NAB=   600 NAA=   300 NBB=   276.
 DE(Corr)= -0.97651511     E(CORR)=     -3159.3722715     Delta= 6.71D-08
 NORM(A)=   0.11956968D+01
 Iteration Nr.  31
 **********************
 DD1Dir will call FoFMem   1 times, MxPair=      1776
 NAB=   600 NAA=   300 NBB=   276.
 DE(Corr)= -0.97651486     E(CORR)=     -3159.3722712     Delta= 2.52D-07
 NORM(A)=   0.11956965D+01
 Iteration Nr.  32
 **********************
 DD1Dir will call FoFMem   1 times, MxPair=      1776
 NAB=   600 NAA=   300 NBB=   276.
 DE(Corr)= -0.97651538     E(CORR)=     -3159.3722717     Delta=-5.21D-07
 NORM(A)=   0.11956960D+01
 Iteration Nr.  33
 **********************
 DD1Dir will call FoFMem   1 times, MxPair=      1776
 NAB=   600 NAA=   300 NBB=   276.
 DE(Corr)= -0.97651468     E(CORR)=     -3159.3722710     Delta= 7.05D-07
 NORM(A)=   0.11956960D+01
 Iteration Nr.  34
 **********************
 DD1Dir will call FoFMem   1 times, MxPair=      1776
 NAB=   600 NAA=   300 NBB=   276.
 DE(Corr)= -0.97651514     E(CORR)=     -3159.3722715     Delta=-4.61D-07
 NORM(A)=   0.11956958D+01
 Iteration Nr.  35
 **********************
 DD1Dir will call FoFMem   1 times, MxPair=      1776
 NAB=   600 NAA=   300 NBB=   276.
 DE(Corr)= -0.97651501     E(CORR)=     -3159.3722714     Delta= 1.27D-07
 NORM(A)=   0.11956957D+01
 Iteration Nr.  36
 **********************
 DD1Dir will call FoFMem   1 times, MxPair=      1776
 NAB=   600 NAA=   300 NBB=   276.
 DE(Corr)= -0.97651502     E(CORR)=     -3159.3722714     Delta=-1.14D-08
 NORM(A)=   0.11956957D+01
 Iteration Nr.  37
 **********************
 DD1Dir will call FoFMem   1 times, MxPair=      1776
 NAB=   600 NAA=   300 NBB=   276.
 DE(Corr)= -0.97651502     E(CORR)=     -3159.3722714     Delta= 5.43D-09
 NORM(A)=   0.11956957D+01
 Iteration Nr.  38
 **********************
 DD1Dir will call FoFMem   1 times, MxPair=      1776
 NAB=   600 NAA=   300 NBB=   276.
 DE(Corr)= -0.97651513     E(CORR)=     -3159.3722715     Delta=-1.12D-07
 NORM(A)=   0.11956956D+01
 Iteration Nr.  39
 **********************
 DD1Dir will call FoFMem   1 times, MxPair=      1776
 NAB=   600 NAA=   300 NBB=   276.
 DE(Corr)= -0.97651498     E(CORR)=     -3159.3722713     Delta= 1.46D-07
 NORM(A)=   0.11956956D+01
 Iteration Nr.  40
 **********************
 DD1Dir will call FoFMem   1 times, MxPair=      1776
 NAB=   600 NAA=   300 NBB=   276.
 DE(Corr)= -0.97651508     E(CORR)=     -3159.3722714     Delta=-9.75D-08
 NORM(A)=   0.11956956D+01
 Iteration Nr.  41
 **********************
 DD1Dir will call FoFMem   1 times, MxPair=      1776
 NAB=   600 NAA=   300 NBB=   276.
 DE(Corr)= -0.97651505     E(CORR)=     -3159.3722714     Delta= 3.09D-08
 NORM(A)=   0.11956956D+01
 Iteration Nr.  42
 **********************
 DD1Dir will call FoFMem   1 times, MxPair=      1776
 NAB=   600 NAA=   300 NBB=   276.
 DE(Corr)= -0.97651505     E(CORR)=     -3159.3722714     Delta=-2.17D-09
 NORM(A)=   0.11956956D+01
 Iteration Nr.  43
 **********************
 DD1Dir will call FoFMem   1 times, MxPair=      1776
 NAB=   600 NAA=   300 NBB=   276.
 DE(Corr)= -0.97651505     E(CORR)=     -3159.3722714     Delta= 4.43D-09
 NORM(A)=   0.11956956D+01
 Iteration Nr.  44
 **********************
 DD1Dir will call FoFMem   1 times, MxPair=      1776
 NAB=   600 NAA=   300 NBB=   276.
 DE(Corr)= -0.97651506     E(CORR)=     -3159.3722714     Delta=-1.68D-08
 NORM(A)=   0.11956956D+01
 Largest amplitude= 5.31D-02
 Time for triples=     8006.21 seconds.
 T4(CCSD)= -0.42617612D-01
 T5(CCSD)=  0.19367325D-02
 CCSD(T)= -0.31594129523D+04

 S**2, projected HF & approx projected MPn energies after annihilation of
 unwanted spin states (see manual for definitions):

 spins       (S**2,0) (S**2,1)    PUHF        PMP2        PMP3        PMP4
 annihilated
 s+1         0.74961  0.75000-3158.398265-3159.342281-3159.369890
 s+1,s+2     0.75000  0.75000-3158.398229-3159.342250-3159.369864
 s+1 to s+3  0.75000  0.75000-3158.398229-3159.342250-3159.369864
 s+1 to s+4  0.75000  0.75000-3158.398229-3159.342251-3159.369864
 s+1 to s+5  0.75000  0.75000-3158.398229
 s+1 to s+6  0.75000  0.75000-3158.398229

 Discarding MO integrals.

 **********************************************************************

            Population analysis using the SCF density.

 **********************************************************************

 Orbital symmetries:
 Alpha Orbitals:
       Occupied  (A) (A) (A) (A) (A) (A) (A) (A) (A) (A) (A) (A)
                 (A) (A) (A) (A) (A) (A) (A) (A) (A) (A) (A) (A)
                 (A) (A) (A) (A) (A) (A) (A) (A) (A) (A) (A) (A)
                 (A) (A) (A) (A)
       Virtual   (A) (A) (A) (A) (A) (A) (A) (A) (A) (A) (A) (A)
                 (A) (A) (A) (A) (A) (A) (A) (A) (A) (A) (A) (A)
                 (A) (A) (A) (A) (A) (A) (A) (A) (A) (A) (A) (A)
                 (A) (A) (A) (A) (A) (A) (A) (A) (A) (A) (A) (A)
                 (A) (A) (A) (A) (A) (A) (A) (A) (A) (A) (A) (A)
                 (A) (A) (A) (A) (A) (A) (A) (A) (A) (A) (A) (A)
                 (A) (A) (A) (A) (A) (A) (A) (A) (A) (A) (A) (A)
                 (A) (A) (A) (A) (A) (A) (A) (A) (A) (A) (A) (A)
                 (A) (A) (A) (A) (A) (A) (A) (A) (A) (A) (A) (A)
                 (A) (A) (A) (A) (A) (A) (A) (A) (A)
 Beta  Orbitals:
       Occupied  (A) (A) (A) (A) (A) (A) (A) (A) (A) (A) (A) (A)
                 (A) (A) (A) (A) (A) (A) (A) (A) (A) (A) (A) (A)
                 (A) (A) (A) (A) (A) (A) (A) (A) (A) (A) (A) (A)
                 (A) (A) (A)
       Virtual   (A) (A) (A) (A) (A) (A) (A) (A) (A) (A) (A) (A)
                 (A) (A) (A) (A) (A) (A) (A) (A) (A) (A) (A) (A)
                 (A) (A) (A) (A) (A) (A) (A) (A) (A) (A) (A) (A)
                 (A) (A) (A) (A) (A) (A) (A) (A) (A) (A) (A) (A)
                 (A) (A) (A) (A) (A) (A) (A) (A) (A) (A) (A) (A)
                 (A) (A) (A) (A) (A) (A) (A) (A) (A) (A) (A) (A)
                 (A) (A) (A) (A) (A) (A) (A) (A) (A) (A) (A) (A)
                 (A) (A) (A) (A) (A) (A) (A) (A) (A) (A) (A) (A)
                 (A) (A) (A) (A) (A) (A) (A) (A) (A) (A) (A) (A)
                 (A) (A) (A) (A) (A) (A) (A) (A) (A) (A)
 The electronic state is 2-A.
 Alpha  occ. eigenvalues -- -490.20220-104.97883 -65.34141 -58.69697 -58.69504
 Alpha  occ. eigenvalues --  -58.69493 -26.39284 -10.70267 -10.01375  -8.16833
 Alpha  occ. eigenvalues --   -8.16752  -8.16721  -7.62608  -7.61756  -7.61697
 Alpha  occ. eigenvalues --   -3.36956  -3.36604  -3.36519  -3.35492  -3.35491
 Alpha  occ. eigenvalues --   -1.66942  -1.26600  -1.21936  -1.17204  -1.07330
 Alpha  occ. eigenvalues --   -0.95158  -0.76962  -0.76463  -0.75094  -0.68550
 Alpha  occ. eigenvalues --   -0.66980  -0.65085  -0.62002  -0.60622  -0.59874
 Alpha  occ. eigenvalues --   -0.59345  -0.58146  -0.57006  -0.54955  -0.54470
 Alpha virt. eigenvalues --   -0.29773  -0.13245  -0.11394  -0.03520  -0.03056
 Alpha virt. eigenvalues --   -0.02897  -0.02718  -0.00298   0.00315   0.00859
 Alpha virt. eigenvalues --    0.21409   0.22275   0.23165   0.23479   0.25397
 Alpha virt. eigenvalues --    0.26407   0.27137   0.31426   0.32696   0.33241
 Alpha virt. eigenvalues --    0.34491   0.36008   0.36825   0.38313   0.39892
 Alpha virt. eigenvalues --    0.40225   0.40778   0.41715   0.43364   0.46627
 Alpha virt. eigenvalues --    0.46946   0.48486   0.48879   0.50109   0.50313
 Alpha virt. eigenvalues --    0.51269   0.53123   0.55893   0.57344   0.60191
 Alpha virt. eigenvalues --    0.64711   0.65476   0.71658   0.74466   0.76609
 Alpha virt. eigenvalues --    0.79761   0.81476   0.83302   0.88471   0.91945
 Alpha virt. eigenvalues --    0.93390   1.01597   1.05578   1.14136   1.24955
 Alpha virt. eigenvalues --    1.57713   1.59080   1.59969   1.60869   1.60923
 Alpha virt. eigenvalues --    1.60972   1.62146   1.68932   1.86958   1.87643
 Alpha virt. eigenvalues --    1.88465   1.88672   1.91541   1.92583   1.94173
 Alpha virt. eigenvalues --    1.96105   1.99025   2.00093   2.04389   2.05959
 Alpha virt. eigenvalues --    2.10633   2.15169   2.16125   2.18731   2.24817
 Alpha virt. eigenvalues --    2.26125   2.27336   2.27587   2.27719   2.29722
 Alpha virt. eigenvalues --    2.31686   2.35655   2.42572   2.47533   2.47960
 Alpha virt. eigenvalues --    2.58920   3.19893   4.84590   5.05549   5.06121
 Alpha virt. eigenvalues --    5.08989   7.24964   7.25620   7.25874   7.26858
 Alpha virt. eigenvalues --    7.26886   7.28902   7.28933   8.49809   8.50407
 Alpha virt. eigenvalues --    8.52366   8.53137   8.58176   8.75667   8.75883
 Alpha virt. eigenvalues --    8.78748   8.79675   8.85913   9.21374  10.75387
 Alpha virt. eigenvalues --   11.90855  13.98268
  Beta  occ. eigenvalues -- -490.20213-104.97912 -65.34138 -58.69671 -58.69507
  Beta  occ. eigenvalues --  -58.69490 -26.39305 -10.70294 -10.01361  -8.16989
  Beta  occ. eigenvalues --   -8.16741  -8.16736  -7.62540  -7.61765  -7.61693
  Beta  occ. eigenvalues --   -3.36933  -3.36589  -3.36500  -3.35495  -3.35493
  Beta  occ. eigenvalues --   -1.67012  -1.22669  -1.17465  -1.16370  -1.07778
  Beta  occ. eigenvalues --   -0.95106  -0.76701  -0.76436  -0.75343  -0.66027
  Beta  occ. eigenvalues --   -0.64774  -0.60642  -0.60202  -0.59487  -0.59082
  Beta  occ. eigenvalues --   -0.58205  -0.57569  -0.55282  -0.54510
  Beta virt. eigenvalues --   -0.29584  -0.28527  -0.12997  -0.11402  -0.03024
  Beta virt. eigenvalues --   -0.02936  -0.02635  -0.01717  -0.00346   0.00345
  Beta virt. eigenvalues --    0.00928   0.21605   0.23462   0.23979   0.24583
  Beta virt. eigenvalues --    0.25706   0.26466   0.27261   0.32389   0.33570
  Beta virt. eigenvalues --    0.36081   0.36946   0.37603   0.38495   0.40413
  Beta virt. eigenvalues --    0.40534   0.41085   0.42036   0.42392   0.45492
  Beta virt. eigenvalues --    0.47148   0.47719   0.48918   0.49188   0.50322
  Beta virt. eigenvalues --    0.50614   0.51603   0.53744   0.56635   0.58535
  Beta virt. eigenvalues --    0.60355   0.65365   0.65590   0.72051   0.74512
  Beta virt. eigenvalues --    0.76802   0.79832   0.81622   0.83265   0.88497
  Beta virt. eigenvalues --    0.92005   0.93373   1.01664   1.05523   1.14171
  Beta virt. eigenvalues --    1.25022   1.57787   1.59141   1.60045   1.60858
  Beta virt. eigenvalues --    1.60949   1.61027   1.62259   1.68961   1.86944
  Beta virt. eigenvalues --    1.87640   1.88473   1.88668   1.91590   1.92616
  Beta virt. eigenvalues --    1.94175   1.96063   1.99055   2.00107   2.04402
  Beta virt. eigenvalues --    2.05836   2.10662   2.15166   2.16119   2.18664
  Beta virt. eigenvalues --    2.24772   2.26032   2.27291   2.27585   2.27735
  Beta virt. eigenvalues --    2.29606   2.31598   2.35535   2.42460   2.47541
  Beta virt. eigenvalues --    2.47968   2.58766   3.19915   4.84565   5.05535
  Beta virt. eigenvalues --    5.06136   5.08887   7.24929   7.25584   7.25841
  Beta virt. eigenvalues --    7.26838   7.26865   7.28903   7.28934   8.49825
  Beta virt. eigenvalues --    8.50406   8.52334   8.53097   8.58145   8.75667
  Beta virt. eigenvalues --    8.75871   8.78681   8.79629   8.85844   9.21832
  Beta virt. eigenvalues --   10.75494  11.91099  13.98268
          Condensed to atoms (all electrons):
               1          2          3          4          5          6
     1  Bi   2.790039   0.082952   0.124078   0.215445   0.251961   0.127567
     2  F    0.082952   9.608667   0.000698  -0.025523  -0.018962  -0.013844
     3  Cl   0.124078   0.000698  17.364417  -0.041802  -0.032472  -0.021896
     4  Br   0.215445  -0.025523  -0.041802  34.991864  -0.008249  -0.004413
     5  I    0.251961  -0.018962  -0.032472  -0.008249   6.655891  -0.004065
     6  At   0.127567  -0.013844  -0.021896  -0.004413  -0.004065   6.326172
          Atomic-Atomic Spin Densities.
               1          2          3          4          5          6
     1  Bi  -0.007233  -0.000104   0.007616  -0.003750  -0.005586  -0.030960
     2  F   -0.000104  -0.002593  -0.000030  -0.000252   0.000074  -0.001756
     3  Cl   0.007616  -0.000030  -0.029332  -0.000854   0.000565  -0.005068
     4  Br  -0.003750  -0.000252  -0.000854   0.023780   0.000596   0.001019
     5  I   -0.005586   0.000074   0.000565   0.000596  -0.065094   0.000123
     6  At  -0.030960  -0.001756  -0.005068   0.001019   0.000123   1.157204
 Mulliken charges and spin densities:
               1          2
     1  Bi   1.407957  -0.040017
     2  F   -0.633988  -0.004661
     3  Cl  -0.393024  -0.027103
     4  Br  -0.127321   0.020541
     5  I    0.155897  -0.069321
     6  At   0.590479   1.120562
 Sum of Mulliken charges =   1.00000   1.00000
 Mulliken charges and spin densities with hydrogens summed into heavy atoms:
               1          2
     1  Bi   1.407957  -0.040017
     2  F   -0.633988  -0.004661
     3  Cl  -0.393024  -0.027103
     4  Br  -0.127321   0.020541
     5  I    0.155897  -0.069321
     6  At   0.590479   1.120562
 Electronic spatial extent (au):  <R**2>=           2204.8479
 Charge=              1.0000 electrons
 Dipole moment (field-independent basis, Debye):
    X=             -4.9502    Y=             -2.2420    Z=              0.6160  Tot=              5.4690
 Quadrupole moment (field-independent basis, Debye-Ang):
   XX=            -57.0022   YY=            -81.6809   ZZ=           -103.0300
   XY=              0.3223   XZ=              0.6383   YZ=             -0.2177
 Traceless Quadrupole moment (field-independent basis, Debye-Ang):
   XX=             23.5689   YY=             -1.1098   ZZ=            -22.4590
   XY=              0.3223   XZ=              0.6383   YZ=             -0.2177
 Octapole moment (field-independent basis, Debye-Ang**2):
  XXX=           -126.3990  YYY=            -40.4359  ZZZ=            -26.9022  XYY=             -5.6180
  XXY=            -57.2293  XXZ=            -17.1726  XZZ=            -44.2830  YZZ=            -22.4291
  YYZ=            -17.7996  XYZ=             -0.6264
 Hexadecapole moment (field-independent basis, Debye-Ang**3):
 XXXX=          -1359.4071 YYYY=          -1168.1574 ZZZZ=           -797.7073 XXXY=            -49.2126
 XXXZ=            -11.2944 YYYX=              1.5133 YYYZ=            -17.5853 ZZZX=              1.4944
 ZZZY=             -2.5361 XXYY=           -413.7159 XXZZ=           -398.2736 YYZZ=           -352.6209
 XXYZ=              1.3114 YYXZ=             -9.5599 ZZXY=              5.4316
 N-N= 3.434458616690D+02 E-N=-8.215340678122D+03  KE= 3.139257889556D+03
 1\1\GINC-GAMBA\SP\UCCSD(T)-FC\Gen\At1Bi1Br1Cl1F1I1(1+,2)\IRIKURA\19-Ma
 y-2017\0\\# CCSD(T,maxcyc=100)/GEN gfinput geom=check scf=xqc pseudo=r
 ead\\BEB step 8: low-spin CCSD(T) for cation of BiFClBrIAt\\1,2\Bi,0,-
 0.9365127913,0.6634957207,-0.0229682709\F,0,-0.9148015666,0.6506383511
 ,2.0117615586\Cl,0,-0.9482875525,0.673187048,-2.5888735473\Br,0,-2.265
 5976762,2.8869666536,0.0529192917\I,0,-2.4412175827,-1.7333450332,0.06
 47936077\At,0,1.9930976294,0.7281258298,0.0723673602\\Version=ES64L-G0
 9RevD.01\State=2-A\HF=-3158.3957564\MP2=-3159.3401462\MP3=-3159.368136
 3\MP4D=-3159.3901011\MP4DQ=-3159.3661569\PUHF=-3158.3982648\PMP2-0=-31
 59.3422813\PMP3-0=-3159.3698904\MP4SDQ=-3159.3761332\CCSD=-3159.372271
 4\CCSD(T)=-3159.4129523\S2=0.790054\S2-1=0.778016\S2A=0.750649\RMSD=7.
 290e-09\PG=C01 [X(At1Bi1Br1Cl1F1I1)]\\@


 DEPRESSION IS WAITING FOR YOUR SHIP TO COME IN,
 AND FINDING OUT IT'S THE TITANIC.
 Job cpu time:       0 days  9 hours  2 minutes 23.4 seconds.
 File lengths (MBytes):  RWF=   8644 Int=      0 D2E=      0 Chk=      4 Scr=      1
 Normal termination of Gaussian 09 at Fri May 19 18:35:34 2017.
