 Entering Gaussian System, Link 0=g09
 AtFile(1): t_plusd.gbs
            -Al     0
            S   13   1.00
             205500.0000000              0.678836D-04
              30780.0000000              0.527149D-03
               7006.0000000              0.276203D-02
               1985.0000000              0.114728D-01
                649.1000000              0.398188D-01
                235.0000000              0.115040D+00
                 91.6200000              0.260887D+00
                 37.6700000              0.396386D+00
                 15.9100000              0.284597D+00
                  5.8500000              0.444583D-01
                  2.5420000             -0.489838D-02
                  1.0570000              0.261253D-02
                  0.1455000              0.722068D-03
            S   13   1.00
             205500.0000000             -0.176377D-04
              30780.0000000             -0.137195D-03
               7006.0000000             -0.718910D-03
               1985.0000000             -0.301146D-02
                649.1000000             -0.106014D-01
                235.0000000             -0.321345D-01
                 91.6200000             -0.803156D-01
                 37.6700000             -0.156794D+00
                 15.9100000             -0.168376D+00
                  5.8500000              0.126879D+00
                  2.5420000              0.561494D+00
                  1.0570000              0.436613D+00
                  0.1455000             -0.114563D-01
            S   13   1.00
             205500.0000000              0.407315D-05
              30780.0000000              0.316566D-04
               7006.0000000              0.166116D-03
               1985.0000000              0.694992D-03
                649.1000000              0.245511D-02
                235.0000000              0.744598D-02
                 91.6200000              0.188253D-01
                 37.6700000              0.372772D-01
                 15.9100000              0.419496D-01
                  5.8500000             -0.354375D-01
                  2.5420000             -0.175132D+00
                  1.0570000             -0.276203D+00
                  0.1455000              0.652809D+00
            S   1   1.00
                  0.2931000              1.0000000
            S   1   1.00
                  0.0565000              1.0000000
            P   7   1.00
                444.4000000              0.162786D-02
                105.1000000              0.130687D-01
                 33.4700000              0.612341D-01
                 12.3300000              0.187870D+00
                  4.8690000              0.360452D+00
                  1.9610000              0.408454D+00
                  0.1888000              0.976514D-02
            P   7   1.00
                444.4000000             -0.286341D-03
                105.1000000             -0.242308D-02
                 33.4700000             -0.108658D-01
                 12.3300000             -0.364307D-01
                  4.8690000             -0.641074D-01
                  1.9610000             -0.972239D-01
                  0.1888000              0.503448D+00
            P   1   1.00
                  0.7834000              1.0000000
            P   1   1.00
                  0.0555700              1.0000000
            D   1   1.00
                  1.5700000              1.0000000
            D   1   1.00
                  0.3330000              1.0000000
            D   1   1.00
                  0.1110000              1.0000000
            F   1   1.00
                  0.2440000              1.0000000
            ****
            -Si     0
            S   13   1.00
             254900.0000000              0.625101D-04
              38190.0000000              0.485553D-03
               8690.0000000              0.254516D-02
               2462.0000000              0.105866D-01
                804.8000000              0.368787D-01
                291.3000000              0.107479D+00
                113.6000000              0.247936D+00
                 46.7500000              0.390927D+00
                 19.8200000              0.302026D+00
                  7.7080000              0.559236D-01
                  3.3400000             -0.402406D-02
                  1.4020000              0.258030D-02
                  0.2070000              0.607930D-03
            S   13   1.00
             254900.0000000             -0.166370D-04
              38190.0000000             -0.129310D-03
               8690.0000000             -0.678828D-03
               2462.0000000             -0.284117D-02
                804.8000000             -0.100551D-01
                291.3000000             -0.305774D-01
                113.6000000             -0.777256D-01
                 46.7500000             -0.154236D+00
                 19.8200000             -0.180368D+00
                  7.7080000              0.798218D-01
                  3.3400000              0.547441D+00
                  1.4020000              0.480119D+00
                  0.2070000             -0.106996D-01
            S   13   1.00
             254900.0000000              0.426257D-05
              38190.0000000              0.331062D-04
               8690.0000000              0.174015D-03
               2462.0000000              0.727574D-03
                804.8000000              0.258333D-02
                291.3000000              0.786354D-02
                113.6000000              0.202155D-01
                 46.7500000              0.407320D-01
                 19.8200000              0.499358D-01
                  7.7080000             -0.249396D-01
                  3.3400000             -0.190350D+00
                  1.4020000             -0.318350D+00
                  0.2070000              0.681180D+00
            S   1   1.00
                  0.4387000              1.0000000
            S   1   1.00
                  0.0794400              1.0000000
            P   7   1.00
                481.5000000              0.192045D-02
                113.9000000              0.153552D-01
                 36.2300000              0.713991D-01
                 13.3400000              0.213052D+00
                  5.2520000              0.390354D+00
                  2.1200000              0.393721D+00
                  0.2528000              0.395630D-02
            P   7   1.00
                481.5000000             -0.405220D-03
                113.9000000             -0.335896D-02
                 36.2300000             -0.152860D-01
                 13.3400000             -0.489218D-01
                  5.2520000             -0.855008D-01
                  2.1200000             -0.112137D+00
                  0.2528000              0.551919D+00
            P   1   1.00
                  0.8561000              1.0000000
            P   1   1.00
                  0.0788900              1.0000000
            D   1   1.00
                  2.3030000              1.0000000
            D   1   1.00
                  0.4760000              1.0000000
            D   1   1.00
                  0.1600000              1.0000000
            F   1   1.00
                  0.3360000              1.0000000
            ****
            -P     0
            S   13   1.00
             312400.0000000              0.576960D-04
              46800.0000000              0.448296D-03
              10650.0000000              0.234939D-02
               3018.0000000              0.978265D-02
                986.8000000              0.341467D-01
                357.4000000              0.100204D+00
                139.6000000              0.234372D+00
                 57.6300000              0.382434D+00
                 24.6000000              0.318088D+00
                 10.1200000              0.707788D-01
                  4.2830000             -0.181799D-02
                  1.8050000              0.216180D-02
                  0.2782000              0.432297D-03
            S   13   1.00
             312400.0000000             -0.156709D-04
              46800.0000000             -0.121724D-03
              10650.0000000             -0.639672D-03
               3018.0000000             -0.267426D-02
                986.8000000             -0.949831D-02
                357.4000000             -0.289349D-01
                139.6000000             -0.745121D-01
                 57.6300000             -0.149938D+00
                 24.6000000             -0.189467D+00
                 10.1200000              0.363270D-01
                  4.2830000              0.528816D+00
                  1.8050000              0.519115D+00
                  0.2782000             -0.925695D-02
            S   13   1.00
             312400.0000000              0.430631D-05
              46800.0000000              0.334194D-04
              10650.0000000              0.175885D-03
               3018.0000000              0.734340D-03
                986.8000000              0.261775D-02
                357.4000000              0.797852D-02
                139.6000000              0.207940D-01
                 57.6300000              0.424446D-01
                 24.6000000              0.563436D-01
                 10.1200000             -0.127358D-01
                  4.2830000             -0.196495D+00
                  1.8050000             -0.353555D+00
                  0.2782000              0.700912D+00
            S   1   1.00
                  0.6158000              1.0000000
            S   1   1.00
                  0.1055000              1.0000000
            P   7   1.00
                504.9000000              0.233728D-02
                119.4000000              0.185410D-01
                 37.9600000              0.849693D-01
                 13.9500000              0.244615D+00
                  5.4570000              0.422766D+00
                  2.1770000              0.368439D+00
                  0.2877000             -0.379005D-02
            P   7   1.00
                504.9000000             -0.555236D-03
                119.4000000             -0.445913D-02
                 37.9600000             -0.206350D-01
                 13.9500000             -0.617694D-01
                  5.4570000             -0.108924D+00
                  2.1770000             -0.105599D+00
                  0.2877000              0.576981D+00
            P   1   1.00
                  0.8010000              1.0000000
            P   1   1.00
                  0.0971400              1.0000000
            D   1   1.00
                  3.1200000              1.0000000
            D   1   1.00
                  0.6480000              1.0000000
            D   1   1.00
                  0.2180000              1.0000000
            F   1   1.00
                  0.4520000              1.0000000
            ****
            -S     0
            S   13   1.00
             374100.0000000              0.542140D-04
              56050.0000000              0.420855D-03
              12760.0000000              0.220698D-02
               3615.0000000              0.919258D-02
               1183.0000000              0.321123D-01
                428.8000000              0.946683D-01
                167.8000000              0.223630D+00
                 69.4700000              0.374393D+00
                 29.8400000              0.329108D+00
                 12.7200000              0.847038D-01
                  5.2440000              0.440851D-03
                  2.2190000              0.164827D-02
                  0.3490000              0.301306D-03
            S   13   1.00
             374100.0000000             -0.149837D-04
              56050.0000000             -0.116198D-03
              12760.0000000             -0.611583D-03
               3615.0000000             -0.255370D-02
               1183.0000000             -0.908708D-02
                428.8000000             -0.277045D-01
                167.8000000             -0.720020D-01
                 69.4700000             -0.146439D+00
                 29.8400000             -0.195150D+00
                 12.7200000              0.819193D-02
                  5.2440000              0.516601D+00
                  2.2190000              0.542178D+00
                  0.3490000             -0.918072D-02
            S   13   1.00
             374100.0000000              0.435066D-05
              56050.0000000              0.337140D-04
              12760.0000000              0.177674D-03
               3615.0000000              0.741116D-03
               1183.0000000              0.264591D-02
                428.8000000              0.807487D-02
                167.8000000              0.212276D-01
                 69.4700000              0.438323D-01
                 29.8400000              0.612716D-01
                 12.7200000             -0.361510D-02
                  5.2440000             -0.204510D+00
                  2.2190000             -0.381871D+00
                  0.3490000              0.714147D+00
            S   1   1.00
                  0.7767000              1.0000000
            S   1   1.00
                  0.1322000              1.0000000
            P   7   1.00
                574.4000000              0.242264D-02
                135.8000000              0.192796D-01
                 43.1900000              0.885401D-01
                 15.8700000              0.254654D+00
                  6.2080000              0.433984D+00
                  2.4830000              0.354953D+00
                  0.3229000             -0.502977D-02
            P   7   1.00
                574.4000000             -0.620102D-03
                135.8000000             -0.493882D-02
                 43.1900000             -0.232647D-01
                 15.8700000             -0.685195D-01
                  6.2080000             -0.123896D+00
                  2.4830000             -0.969499D-01
                  0.3229000              0.569394D+00
            P   1   1.00
                  0.8688000              1.0000000
            P   1   1.00
                  0.1098000              1.0000000
            D   1   1.00
                  3.7560000              1.0000000
            D   1   1.00
                  0.8120000              1.0000000
            D   1   1.00
                  0.2730000              1.0000000
            F   1   1.00
                  0.5570000              1.0000000
            ****
            -Cl     0
            S   13   1.00
             456100.0000000              0.492970D-04
              68330.0000000              0.383029D-03
              15550.0000000              0.200854D-02
               4405.0000000              0.838558D-02
               1439.0000000              0.294703D-01
                520.4000000              0.878325D-01
                203.1000000              0.211473D+00
                 83.9600000              0.365364D+00
                 36.2000000              0.340884D+00
                 15.8300000              0.102133D+00
                  6.3340000              0.311675D-02
                  2.6940000              0.105751D-02
                  0.4313000              0.156136D-03
            S   13   1.00
             456100.0000000             -0.138304D-04
              68330.0000000             -0.107279D-03
              15550.0000000             -0.565083D-03
               4405.0000000             -0.236135D-02
               1439.0000000             -0.845886D-02
                520.4000000             -0.259638D-01
                203.1000000             -0.686362D-01
                 83.9600000             -0.141874D+00
                 36.2000000             -0.199319D+00
                 15.8300000             -0.195662D-01
                  6.3340000              0.499741D+00
                  2.6940000              0.563736D+00
                  0.4313000             -0.835091D-02
            S   13   1.00
             456100.0000000              0.418546D-05
              68330.0000000              0.324395D-04
              15550.0000000              0.171105D-03
               4405.0000000              0.714176D-03
               1439.0000000              0.256705D-02
                520.4000000              0.788552D-02
                203.1000000              0.210867D-01
                 83.9600000              0.442264D-01
                 36.2000000              0.651670D-01
                 15.8300000              0.603012D-02
                  6.3340000             -0.206495D+00
                  2.6940000             -0.405871D+00
                  0.4313000              0.725661D+00
            S   1   1.00
                  0.9768000              1.0000000
            S   1   1.00
                  0.1625000              1.0000000
            P   7   1.00
                663.3000000              0.240448D-02
                156.8000000              0.192148D-01
                 49.9800000              0.885097D-01
                 18.4200000              0.256020D+00
                  7.2400000              0.436927D+00
                  2.9220000              0.350334D+00
                  0.3818000             -0.458423D-02
            P   7   1.00
                663.3000000             -0.652145D-03
                156.8000000             -0.519445D-02
                 49.9800000             -0.246938D-01
                 18.4200000             -0.728167D-01
                  7.2400000             -0.134030D+00
                  2.9220000             -0.947742D-01
                  0.3818000              0.564667D+00
            P   1   1.00
                  1.0220000              1.0000000
            P   1   1.00
                  0.1301000              1.0000000
            D   1   1.00
                  4.6100000              1.0000000
            D   1   1.00
                  1.0110000              1.0000000
            D   1   1.00
                  0.3390000              1.0000000
            F   1   1.00
                  0.7060000              1.0000000
            ****
            -Ar     0
            S   13   1.00
             545000.0000000              0.455828D-04
              81640.0000000              0.354108D-03
              18580.0000000              0.185797D-02
               5261.0000000              0.776851D-02
               1717.0000000              0.274232D-01
                619.9000000              0.823836D-01
                241.6000000              0.201230D+00
                 99.7900000              0.356781D+00
                 43.1500000              0.349563D+00
                 19.1400000              0.118266D+00
                  7.4880000              0.560190D-02
                  3.2050000              0.483473D-03
                  0.5204000              0.292025D-04
            S   13   1.00
             545000.0000000             -0.129551D-04
              81640.0000000             -0.100428D-03
              18580.0000000             -0.529583D-03
               5261.0000000             -0.221396D-02
               1717.0000000             -0.796845D-02
                619.9000000             -0.245803D-01
                241.6000000             -0.657798D-01
                 99.7900000             -0.137942D+00
                 43.1500000             -0.201630D+00
                 19.1400000             -0.412834D-01
                  7.4880000              0.484680D+00
                  3.2050000              0.579224D+00
                  0.5204000             -0.727553D-02
            S   13   1.00
             545000.0000000              0.404990D-05
              81640.0000000              0.313691D-04
              18580.0000000              0.165646D-03
               5261.0000000              0.691662D-03
               1717.0000000              0.249790D-02
                619.9000000              0.771074D-02
                241.6000000              0.208714D-01
                 99.7900000              0.443965D-01
                 43.1500000              0.680224D-01
                 19.1400000              0.141350D-01
                  7.4880000             -0.207489D+00
                  3.2050000             -0.425045D+00
                  0.5204000              0.733627D+00
            S   1   1.00
                  1.1960000              1.0000000
            S   1   1.00
                  0.1954000              1.0000000
            P   7   1.00
                761.8000000              0.236976D-02
                180.2000000              0.190199D-01
                 57.5000000              0.880807D-01
                 21.2400000              0.256377D+00
                  8.3880000              0.438711D+00
                  3.4160000              0.347569D+00
                  0.4523000             -0.523882D-02
            P   7   1.00
                761.8000000             -0.667211D-03
                180.2000000             -0.532717D-02
                 57.5000000             -0.255494D-01
                 21.2400000             -0.757197D-01
                  8.3880000             -0.141133D+00
                  3.4160000             -0.932768D-01
                  0.4523000              0.562450D+00
            P   1   1.00
                  1.2060000              1.0000000
            P   1   1.00
                  0.1545000              1.0000000
            D   1   1.00
                  5.5510000              1.0000000
            D   1   1.00
                  1.2350000              1.0000000
            D   1   1.00
                  0.4120000              1.0000000
            F   1   1.00
                  0.8900000              1.0000000
            ****
 Initial command:
 /usr/local/apps/g09/l1.exe "/wrk/irikura/Gau-20891.inp" -scrdir="/wrk/irikura/"
 Entering Link 1 = /usr/local/apps/g09/l1.exe PID=     20893.
  
 Copyright (c) 1988,1990,1992,1993,1995,1998,2003,2009,2013,
            Gaussian, Inc.  All Rights Reserved.
  
 This is part of the Gaussian(R) 09 program.  It is based on
 the Gaussian(R) 03 system (copyright 2003, Gaussian, Inc.),
 the Gaussian(R) 98 system (copyright 1998, Gaussian, Inc.),
 the Gaussian(R) 94 system (copyright 1995, Gaussian, Inc.),
 the Gaussian 92(TM) system (copyright 1992, Gaussian, Inc.),
 the Gaussian 90(TM) system (copyright 1990, Gaussian, Inc.),
 the Gaussian 88(TM) system (copyright 1988, Gaussian, Inc.),
 the Gaussian 86(TM) system (copyright 1986, Carnegie Mellon
 University), and the Gaussian 82(TM) system (copyright 1983,
 Carnegie Mellon University). Gaussian is a federally registered
 trademark of Gaussian, Inc.
  
 This software contains proprietary and confidential information,
 including trade secrets, belonging to Gaussian, Inc.
  
 This software is provided under written license and may be
 used, copied, transmitted, or stored only in accord with that
 written license.
  
 The following legend is applicable only to US Government
 contracts under FAR:
  
                    RESTRICTED RIGHTS LEGEND
  
 Use, reproduction and disclosure by the US Government is
 subject to restrictions as set forth in subparagraphs (a)
 and (c) of the Commercial Computer Software - Restricted
 Rights clause in FAR 52.227-19.
  
 Gaussian, Inc.
 340 Quinnipiac St., Bldg. 40, Wallingford CT 06492
  
  
 ---------------------------------------------------------------
 Warning -- This program may not be used in any manner that
 competes with the business of Gaussian, Inc. or will provide
 assistance to any competitor of Gaussian, Inc.  The licensee
 of this program is prohibited from giving any competitor of
 Gaussian, Inc. access to this program.  By using this program,
 the user acknowledges that Gaussian, Inc. is engaged in the
 business of creating and licensing software in the field of
 computational chemistry and represents and warrants to the
 licensee that it is not a competitor of Gaussian, Inc. and that
 it will not use this program in any manner prohibited above.
 ---------------------------------------------------------------
  

 Cite this work as:
 Gaussian 09, Revision D.01,
 M. J. Frisch, G. W. Trucks, H. B. Schlegel, G. E. Scuseria, 
 M. A. Robb, J. R. Cheeseman, G. Scalmani, V. Barone, B. Mennucci, 
 G. A. Petersson, H. Nakatsuji, M. Caricato, X. Li, H. P. Hratchian, 
 A. F. Izmaylov, J. Bloino, G. Zheng, J. L. Sonnenberg, M. Hada, 
 M. Ehara, K. Toyota, R. Fukuda, J. Hasegawa, M. Ishida, T. Nakajima, 
 Y. Honda, O. Kitao, H. Nakai, T. Vreven, J. A. Montgomery, Jr., 
 J. E. Peralta, F. Ogliaro, M. Bearpark, J. J. Heyd, E. Brothers, 
 K. N. Kudin, V. N. Staroverov, T. Keith, R. Kobayashi, J. Normand, 
 K. Raghavachari, A. Rendell, J. C. Burant, S. S. Iyengar, J. Tomasi, 
 M. Cossi, N. Rega, J. M. Millam, M. Klene, J. E. Knox, J. B. Cross, 
 V. Bakken, C. Adamo, J. Jaramillo, R. Gomperts, R. E. Stratmann, 
 O. Yazyev, A. J. Austin, R. Cammi, C. Pomelli, J. W. Ochterski, 
 R. L. Martin, K. Morokuma, V. G. Zakrzewski, G. A. Voth, 
 P. Salvador, J. J. Dannenberg, S. Dapprich, A. D. Daniels, 
 O. Farkas, J. B. Foresman, J. V. Ortiz, J. Cioslowski, 
 and D. J. Fox, Gaussian, Inc., Wallingford CT, 2013.
 
 ******************************************
 Gaussian 09:  ES64L-G09RevD.01 24-Apr-2013
                22-May-2017 
 ******************************************
 %chk=BiFClBrIAt.chk
 %nprocs=8
 Will use up to    8 processors via shared memory.
 %mem=2000mw
 ----------------------------------------------------------
 # HF/GEN gfinput geom=check scf=xqc pseudo=read stable=opt
 ----------------------------------------------------------
 1/29=2,38=1/1;
 2/12=2,40=1/2;
 3/5=7,11=2,14=-4,16=1,17=8,24=10,25=1,30=1/1,2,3;
 4//1;
 5/5=2,8=3,13=1,38=5/2,8;
 6/7=2,8=2,9=2,10=2,28=1/1;
 8/6=1,10=90,11=11/1;
 9/8=-3,42=1,46=1/14;
 5/5=2,8=3,17=40,38=5/8(-2);
 6/7=2,8=2,9=2,10=2,28=1/1;
 99/5=1,9=1/99;
 ----------------------------------------------------------------------
 prepare for BEB step 10: low-spin HF for dication, stability check/fol
 low
 ----------------------------------------------------------------------
 Structure from the checkpoint file:  "BiFClBrIAt.chk"
 Charge =  2 Multiplicity = 1
 Redundant internal coordinates found in file.
 Bi,0,-0.9365127913,0.6634957207,-0.0229682709
 F,0,-0.9148015666,0.6506383511,2.0117615586
 Cl,0,-0.9482875525,0.673187048,-2.5888735473
 Br,0,-2.2655976762,2.8869666536,0.0529192917
 I,0,-2.4412175827,-1.7333450332,0.0647936077
 At,0,1.9930976294,0.7281258298,0.0723673602
 Recover connectivity data from disk.
                          Input orientation:                          
 ---------------------------------------------------------------------
 Center     Atomic      Atomic             Coordinates (Angstroms)
 Number     Number       Type             X           Y           Z
 ---------------------------------------------------------------------
      1         83           0       -0.936513    0.663496   -0.022968
      2          9           0       -0.914802    0.650638    2.011762
      3         17           0       -0.948288    0.673187   -2.588874
      4         35           0       -2.265598    2.886967    0.052919
      5         53           0       -2.441218   -1.733345    0.064794
      6         85           0        1.993098    0.728126    0.072367
 ---------------------------------------------------------------------
                    Distance matrix (angstroms):
                    1          2          3          4          5
     1  Bi   0.000000
     2  F    2.034886   0.000000
     3  Cl   2.565951   4.600812   0.000000
     4  Br   2.591534   3.265406   3.689877   0.000000
     5  I    2.831375   3.435696   3.881003   4.623663   0.000000
     6  At   2.931874   3.496160   3.966985   4.774668   5.071691
                    6
     6  At   0.000000
 Stoichiometry    AtBiBrClFI(2+)
 Framework group  C1[X(AtBiBrClFI)]
 Deg. of freedom    12
 Full point group                 C1      NOp   1
 Largest Abelian subgroup         C1      NOp   1
 Largest concise Abelian subgroup C1      NOp   1
                         Standard orientation:                         
 ---------------------------------------------------------------------
 Center     Atomic      Atomic             Coordinates (Angstroms)
 Number     Number       Type             X           Y           Z
 ---------------------------------------------------------------------
      1         83           0        0.374064    0.267985   -0.054105
      2          9           0        0.313649    0.165948   -2.085534
      3         17           0        0.437083    0.386067    2.508352
      4         35           0        1.029333    2.767885   -0.246893
      5         53           0        2.484600   -1.618625   -0.109103
      6         85           0       -2.458953   -0.486921   -0.058326
 ---------------------------------------------------------------------
 Rotational constants (GHZ):      0.3835675      0.2029668      0.1585664
 General basis read from cards:  (5D, 7F)
 ======================================================================================================
                                       Pseudopotential Parameters
 ======================================================================================================
  Center     Atomic      Valence      Angular      Power
  Number     Number     Electrons     Momentum     of R      Exponent        Coefficient   SO-Coeffient
 ======================================================================================================
    1         83            5
                                      H and up 
                                                     2        1.0000000        0.00000000    0.00000000
                                      S - H
                                                     2        0.1611520       -0.16198800    0.00000000
                                                     2        1.5098350       14.03169000    0.00000000
                                                     2       10.0000000      122.04740100    0.00000000
                                      P - H
                                                     2        0.7604900       -6.18852600    0.00000000
                                                     2        1.4264150       51.04586800    0.00000000
                                      D - H
                                                     2        0.7802260       20.53580400    0.00000000
                                                     2        0.2600750       -0.13619600    0.00000000
                                      F - H
                                                     2        0.9736080       -6.41422600    0.00000000
                                      G - H
                                                     2        1.0881950       -6.65606400    0.00000000
    2          9
                                   No pseudopotential on this center.
    3         17
                                   No pseudopotential on this center.
    4         35
                                   No pseudopotential on this center.
    5         53            7
                                      G and up 
                                                     2        1.0000000        0.00000000    0.00000000
                                      S - G
                                                     2        3.5112000       83.11386300    0.00000000
                                                     2        1.7556000        5.20187600    0.00000000
                                      P - G
                                                     2        2.9688000       82.81110900    0.00000000
                                                     2        1.4844000        3.37968200    0.00000000
                                      D - G
                                                     2        1.9066000       10.30427700    0.00000000
                                                     2        0.9533000        7.58803200    0.00000000
                                      F - G
                                                     2        2.3075000      -21.47793600    0.00000000
    6         85            7
                                      H and up 
                                                     2        1.0000000        0.00000000    0.00000000
                                      S - H
                                                     2        0.9223860       -5.52846100    0.00000000
                                                     2        1.7819150       39.56886900    0.00000000
                                                     2       10.0000000      170.71138600    0.00000000
                                      P - H
                                                     2        0.7242910       -2.29538700    0.00000000
                                                     2        1.3638600       25.49292000    0.00000000
                                      D - H
                                                     2        0.6359720        4.86510700    0.00000000
                                                     2        1.2719430       14.57941300    0.00000000
                                      F - H
                                                     2        1.1541080       -6.85786700    0.00000000
                                      G - H
                                                     2        1.3451150       -7.61303900    0.00000000
 ======================================================================================================
 AO basis set in the form of general basis input (Overlap normalization):
      1 0
 S   3 1.00       0.000000000000
      0.1425388000D+01  0.1551577849D+00
      0.9849140000D+00 -0.9337229251D+00
      0.2525140000D+00  0.1433392723D+01
 S   1 1.00       0.000000000000
      0.1006190000D+00  0.1000000000D+01
 P   3 1.00       0.000000000000
      0.1517283000D+01  0.5994662445D+00
      0.1253307000D+01 -0.8875967497D+00
      0.2079490000D+00  0.1121281412D+01
 P   1 1.00       0.000000000000
      0.6943300000D-01  0.1000000000D+01
 D   1 1.00       0.000000000000
      0.1700000000D+00  0.1000000000D+01
 ****
      2 0
 S   7 1.00       0.000000000000
      0.1950000000D+05  0.5190024441D-03
      0.2923000000D+04  0.4015781354D-02
      0.6645000000D+03  0.2067746110D-01
      0.1875000000D+03  0.8086901703D-01
      0.6062000000D+02  0.2358075463D+00
      0.2142000000D+02  0.4425823060D+00
      0.7950000000D+01  0.3569628672D+00
 S   6 1.00       0.000000000000
      0.6645000000D+03 -0.3735980873D-04
      0.1875000000D+03 -0.1277472297D-02
      0.6062000000D+02 -0.1082201399D-01
      0.2142000000D+02 -0.7004820894D-01
      0.7950000000D+01 -0.1697466078D+00
      0.8815000000D+00  0.1073026608D+01
 S   1 1.00       0.000000000000
      0.2257000000D+01  0.1000000000D+01
 S   1 1.00       0.000000000000
      0.3041000000D+00  0.1000000000D+01
 P   3 1.00       0.000000000000
      0.4388000000D+02  0.4190462069D-01
      0.9926000000D+01  0.2626978417D+00
      0.2930000000D+01  0.7977593735D+00
 P   1 1.00       0.000000000000
      0.9132000000D+00  0.1000000000D+01
 P   1 1.00       0.000000000000
      0.2672000000D+00  0.1000000000D+01
 D   1 1.00       0.000000000000
      0.3107000000D+01  0.1000000000D+01
 D   1 1.00       0.000000000000
      0.8550000000D+00  0.1000000000D+01
 F   1 1.00       0.000000000000
      0.1917000000D+01  0.1000000000D+01
 ****
      3 0
 S  11 1.00       0.000000000000
      0.4561000000D+06  0.4931994985D-04
      0.6833000000D+05  0.3832069654D-03
      0.1555000000D+05  0.2009478163D-02
      0.4405000000D+04  0.8389501239D-02
      0.1439000000D+04  0.2948439504D-01
      0.5204000000D+03  0.8787599478D-01
      0.2031000000D+03  0.2115897588D+00
      0.8396000000D+02  0.3656115542D+00
      0.3620000000D+02  0.3412463495D+00
      0.1583000000D+02  0.1021625703D+00
      0.6334000000D+01  0.2142500341D-02
 S   9 1.00       0.000000000000
      0.4405000000D+04 -0.2204447291D-05
      0.1439000000D+04 -0.1711436735D-03
      0.5204000000D+03 -0.1279090931D-02
      0.2031000000D+03 -0.9329228843D-02
      0.8396000000D+02 -0.3989041931D-01
      0.3620000000D+02 -0.1055355078D+00
      0.1583000000D+02  0.9362179729D-02
      0.6334000000D+01  0.5105109260D+00
      0.2694000000D+01  0.5731504921D+00
 S   8 1.00       0.000000000000
      0.1439000000D+04  0.4124162199D-05
      0.2031000000D+03  0.2104155934D-03
      0.8396000000D+02  0.8480710786D-03
      0.3620000000D+02  0.4599171473D-02
      0.1583000000D+02  0.4508898864D-03
      0.6334000000D+01 -0.7367222261D-01
      0.2694000000D+01 -0.3620654654D+00
      0.4313000000D+00  0.1166145419D+01
 S   1 1.00       0.000000000000
      0.9768000000D+00  0.1000000000D+01
 S   1 1.00       0.000000000000
      0.1625000000D+00  0.1000000000D+01
 P   6 1.00       0.000000000000
      0.6633000000D+03  0.2472064066D-02
      0.1568000000D+03  0.1975502338D-01
      0.4998000000D+02  0.9099173548D-01
      0.1842000000D+02  0.2631878341D+00
      0.7240000000D+01  0.4490780732D+00
      0.2922000000D+01  0.3601830723D+00
 P   6 1.00       0.000000000000
      0.1568000000D+03  0.3027166250D-04
      0.4998000000D+02 -0.1225086593D-02
      0.1842000000D+02 -0.6015248783D-02
      0.7240000000D+01 -0.2764176479D-01
      0.2922000000D+01  0.4338088816D-03
      0.3818000000D+00  0.1003073285D+01
 P   1 1.00       0.000000000000
      0.1022000000D+01  0.1000000000D+01
 P   1 1.00       0.000000000000
      0.1301000000D+00  0.1000000000D+01
 D   1 1.00       0.000000000000
      0.4610000000D+01  0.1000000000D+01
 D   1 1.00       0.000000000000
      0.1011000000D+01  0.1000000000D+01
 D   1 1.00       0.000000000000
      0.3390000000D+00  0.1000000000D+01
 F   1 1.00       0.000000000000
      0.7060000000D+00  0.1000000000D+01
 ****
      4 0
 S  15 1.00       0.000000000000
      0.1063900000D+08  0.5896745182D-05
      0.1593400000D+07  0.4607527397D-04
      0.3626100000D+06  0.2420703426D-03
      0.1027000000D+06  0.1022052987D-02
      0.3350100000D+05  0.3709304990D-02
      0.1209300000D+05  0.1197203072D-01
      0.4715900000D+04  0.3467357263D-01
      0.1955600000D+04  0.8907294870D-01
      0.8526100000D+03  0.1933345489D+00
      0.3876700000D+03  0.3206639187D+00
      0.1826800000D+03  0.3295807128D+00
      0.8824500000D+02  0.1492507898D+00
      0.3926300000D+02  0.1557648670D-01
      0.9405700000D+01  0.7937476363D-03
      0.1899500000D+01  0.2652217748D-03
 S  12 1.00       0.000000000000
      0.3350100000D+05 -0.5685368484D-05
      0.1209300000D+05 -0.3526665744D-04
      0.4715900000D+04 -0.3275393771D-03
      0.1955600000D+04 -0.1876292762D-02
      0.8526100000D+03 -0.1014145274D-01
      0.3876700000D+03 -0.3807024403D-01
      0.1826800000D+03 -0.9575369097D-01
      0.8824500000D+02 -0.4738405981D-01
      0.3926300000D+02  0.3475779953D+00
      0.1923400000D+02  0.5739455543D+00
      0.9405700000D+01  0.2142220792D+00
      0.1899500000D+01 -0.1029289626D-01
 S  10 1.00       0.000000000000
      0.4715900000D+04  0.7181053986D-05
      0.8526100000D+03  0.1208285928D-03
      0.3876700000D+03  0.4428524631D-03
      0.1826800000D+03  0.3051630834D-02
      0.8824500000D+02  0.3695717761D-02
      0.3926300000D+02 -0.4417925651D-01
      0.1923400000D+02 -0.2337907175D+00
      0.9405700000D+01 -0.4890374351D-01
      0.4160100000D+01  0.6443747050D+00
      0.1899500000D+01  0.5444241228D+00
 S  10 1.00       0.000000000000
      0.4715900000D+04  0.2458139072D-05
      0.8526100000D+03  0.1215428423D-04
      0.3876700000D+03 -0.4208452873D-04
      0.8824500000D+02 -0.2714111361D-03
      0.3926300000D+02  0.1883352367D-02
      0.1923400000D+02  0.1040094697D-01
      0.9405700000D+01  0.6185749577D-02
      0.4160100000D+01 -0.1115565467D+00
      0.1899500000D+01 -0.4479703046D+00
      0.3011400000D+00  0.1183147328D+01
 S   1 1.00       0.000000000000
      0.6047200000D+00  0.1000000000D+01
 S   1 1.00       0.000000000000
      0.1251500000D+00  0.1000000000D+01
 P   9 1.00       0.000000000000
      0.8676500000D+04  0.4370799928D-03
      0.2055900000D+04  0.3793550623D-02
      0.6662300000D+03  0.2054406734D-01
      0.2531000000D+03  0.7954593888D-01
      0.1061200000D+03  0.2186022953D+00
      0.4724200000D+02  0.3893039098D+00
      0.2182500000D+02  0.3606681106D+00
      0.9968400000D+01  0.1106779629D+00
      0.1998200000D+01 -0.1348076923D-02
 P   9 1.00       0.000000000000
      0.8676500000D+04  0.1001037777D-05
      0.6662300000D+03 -0.7061147843D-04
      0.2531000000D+03 -0.1155608171D-02
      0.1061200000D+03 -0.7097556197D-02
      0.4724200000D+02 -0.2449371243D-01
      0.2182500000D+02 -0.1019825987D-01
      0.9968400000D+01  0.2198547198D+00
      0.4517100000D+01  0.5157410171D+00
      0.1998200000D+01  0.3674940906D+00
 P   8 1.00       0.000000000000
      0.6662300000D+03 -0.2334848891D-04
      0.1061200000D+03 -0.3277965334D-03
      0.4724200000D+02  0.4194389334D-03
      0.2182500000D+02 -0.2206917161D-02
      0.9968400000D+01 -0.6452244639D-02
      0.4517100000D+01 -0.4684587242D-01
      0.1998200000D+01 -0.4091966659D-01
      0.2814500000D+00  0.1018158888D+01
 P   1 1.00       0.000000000000
      0.7098800000D+00  0.1000000000D+01
 P   1 1.00       0.000000000000
      0.1020400000D+00  0.1000000000D+01
 D   7 1.00       0.000000000000
      0.4038300000D+03  0.1517447384D-02
      0.1211700000D+03  0.1305311701D-01
      0.4634500000D+02  0.5978847757D-01
      0.1972100000D+02  0.1756315563D+00
      0.8862400000D+01  0.3281647864D+00
      0.3996200000D+01  0.3960507802D+00
      0.1763600000D+01  0.2819964600D+00
 D   1 1.00       0.000000000000
      0.7061900000D+00  0.1000000000D+01
 D   1 1.00       0.000000000000
      0.2639000000D+00  0.1000000000D+01
 F   1 1.00       0.000000000000
      0.5515000000D+00  0.1000000000D+01
 ****
      5 0
 S   3 1.00       0.000000000000
      0.2122765000D+01  0.2063429899D+01
      0.1770481000D+01 -0.2869526473D+01
      0.3130840000D+00  0.1404747074D+01
 S   1 1.00       0.000000000000
      0.1240710000D+00  0.1000000000D+01
 P   3 1.00       0.000000000000
      0.2432887000D+01  0.7732753148D+00
      0.2137249000D+01 -0.1020833156D+01
      0.3145460000D+00  0.1095666871D+01
 P   1 1.00       0.000000000000
      0.1049450000D+00  0.1000000000D+01
 P   1 1.00       0.000000000000
      0.3264100000D-01  0.1000000000D+01
 D   1 1.00       0.000000000000
      0.3020000000D+00  0.1000000000D+01
 ****
      6 0
 S   3 1.00       0.000000000000
      0.1962420000D+01  0.7836497076D+00
      0.1387359000D+01 -0.1548543810D+01
      0.2962310000D+00  0.1439673124D+01
 S   1 1.00       0.000000000000
      0.1041270000D+00  0.1000000000D+01
 P   3 1.00       0.000000000000
      0.2202138000D+01  0.1075076082D+00
      0.1338791000D+01 -0.3297162076D+00
      0.2620810000D+00  0.1103331080D+01
 P   1 1.00       0.000000000000
      0.9626800000D-01  0.1000000000D+01
 P   1 1.00       0.000000000000
      0.3784900000D-01  0.1000000000D+01
 D   1 1.00       0.000000000000
      0.2300000000D+00  0.1000000000D+01
 ****

 There are   177 symmetry adapted cartesian basis functions of A   symmetry.
 There are   157 symmetry adapted basis functions of A   symmetry.
   157 basis functions,   421 primitive gaussians,   177 cartesian basis functions
    39 alpha electrons       39 beta electrons
       nuclear repulsion energy       343.4458616690 Hartrees.
 NAtoms=    6 NActive=    6 NUniq=    6 SFac= 1.00D+00 NAtFMM=   60 NAOKFM=F Big=F
 Integral buffers will be    131072 words long.
 Raffenetti 2 integral format.
 Two-electron integral symmetry is turned on.
 One-electron integrals computed using PRISM.
   1 Symmetry operations used in ECPInt.
 ECPInt:  NShTT=    1540 NPrTT=   18166 LenC2=    1496 LenP2D=   11904.
 LDataN:  DoStor=T MaxTD1= 8 Len=  415
 NBasis=   157 RedAO= T EigKep=  8.89D-03  NBF=   157
 NBsUse=   157 1.00D-06 EigRej= -1.00D+00 NBFU=   157
 ExpMin= 3.26D-02 ExpMax= 1.06D+07 ExpMxC= 1.21D+04 IAcc=3 IRadAn=         5 AccDes= 0.00D+00
 Harris functional with IExCor=  205 and IRadAn=       5 diagonalized for initial guess.
 HarFok:  IExCor=  205 AccDes= 0.00D+00 IRadAn=         5 IDoV= 1 UseB2=F ITyADJ=14
 ICtDFT=  3500011 ScaDFX=  1.000000  1.000000  1.000000  1.000000
 Defaulting to unpruned grid for atomic number  83.
 Defaulting to unpruned grid for atomic number  83.
 Defaulting to unpruned grid for atomic number  83.
 Defaulting to unpruned grid for atomic number  83.
 Defaulting to unpruned grid for atomic number  83.
 Defaulting to unpruned grid for atomic number  83.
 Defaulting to unpruned grid for atomic number  83.
 Defaulting to unpruned grid for atomic number  83.
 FoFCou: FMM=F IPFlag=           0 FMFlag=      100000 FMFlg1=           0
         NFxFlg=           0 DoJE=T BraDBF=F KetDBF=T FulRan=T
         wScrn=  0.000000 ICntrl=     500 IOpCl=  0 I1Cent=   200000004 NGrid=           0
         NMat0=    1 NMatS0=      1 NMatT0=    0 NMatD0=    1 NMtDS0=    0 NMtDT0=    0
 Petite list used in FoFCou.
 Keep R1 ints in memory in canonical form, NReq=80370060.
 Requested convergence on RMS density matrix=1.00D-08 within  64 cycles.
 Requested convergence on MAX density matrix=1.00D-06.
 Requested convergence on             energy=1.00D-06.
 No special actions if energy rises.
 SCF Done:  E(RHF) =  -3157.78311952     A.U. after   37 cycles
            NFock= 37  Conv=0.71D-08     -V/T= 2.0060
 QCSCF skips out because SCF is already converged.

 **********************************************************************

            Population analysis using the SCF density.

 **********************************************************************

 Orbital symmetries:
       Occupied  (A) (A) (A) (A) (A) (A) (A) (A) (A) (A) (A) (A)
                 (A) (A) (A) (A) (A) (A) (A) (A) (A) (A) (A) (A)
                 (A) (A) (A) (A) (A) (A) (A) (A) (A) (A) (A) (A)
                 (A) (A) (A)
       Virtual   (A) (A) (A) (A) (A) (A) (A) (A) (A) (A) (A) (A)
                 (A) (A) (A) (A) (A) (A) (A) (A) (A) (A) (A) (A)
                 (A) (A) (A) (A) (A) (A) (A) (A) (A) (A) (A) (A)
                 (A) (A) (A) (A) (A) (A) (A) (A) (A) (A) (A) (A)
                 (A) (A) (A) (A) (A) (A) (A) (A) (A) (A) (A) (A)
                 (A) (A) (A) (A) (A) (A) (A) (A) (A) (A) (A) (A)
                 (A) (A) (A) (A) (A) (A) (A) (A) (A) (A) (A) (A)
                 (A) (A) (A) (A) (A) (A) (A) (A) (A) (A) (A) (A)
                 (A) (A) (A) (A) (A) (A) (A) (A) (A) (A) (A) (A)
                 (A) (A) (A) (A) (A) (A) (A) (A) (A) (A)
 The electronic state is 1-A.
 Alpha  occ. eigenvalues -- -490.35433-105.19032 -65.49299 -58.84864 -58.84650
 Alpha  occ. eigenvalues --  -58.84632 -26.53724 -10.91174 -10.16484  -8.37792
 Alpha  occ. eigenvalues --   -8.37574  -8.37536  -7.77762  -7.76801  -7.76722
 Alpha  occ. eigenvalues --   -3.52175  -3.51769  -3.51665  -3.50459  -3.50457
 Alpha  occ. eigenvalues --   -1.81161  -1.43043  -1.40377  -1.31854  -1.22496
 Alpha  occ. eigenvalues --   -1.11002  -0.91637  -0.90686  -0.90221  -0.84938
 Alpha  occ. eigenvalues --   -0.82718  -0.80575  -0.77944  -0.75645  -0.74732
 Alpha  occ. eigenvalues --   -0.72935  -0.72417  -0.69562  -0.69229
 Alpha virt. eigenvalues --   -0.56085  -0.45411  -0.28434  -0.26604  -0.19049
 Alpha virt. eigenvalues --   -0.15635  -0.15535  -0.14993  -0.11151  -0.10179
 Alpha virt. eigenvalues --   -0.09724   0.05871   0.07388   0.07992   0.09351
 Alpha virt. eigenvalues --    0.09776   0.12965   0.14222   0.15562   0.16370
 Alpha virt. eigenvalues --    0.17217   0.18862   0.20268   0.22070   0.23468
 Alpha virt. eigenvalues --    0.23941   0.24398   0.25223   0.25718   0.27169
 Alpha virt. eigenvalues --    0.29654   0.30201   0.31708   0.32197   0.34287
 Alpha virt. eigenvalues --    0.35311   0.36047   0.37220   0.39758   0.41384
 Alpha virt. eigenvalues --    0.44699   0.49238   0.50434   0.56200   0.58818
 Alpha virt. eigenvalues --    0.61325   0.63734   0.66104   0.69127   0.73356
 Alpha virt. eigenvalues --    0.76922   0.79524   0.87342   0.91495   0.98320
 Alpha virt. eigenvalues --    1.10853   1.43233   1.44641   1.45378   1.46331
 Alpha virt. eigenvalues --    1.46638   1.46772   1.47674   1.54437   1.71155
 Alpha virt. eigenvalues --    1.71776   1.72933   1.74048   1.74872   1.75780
 Alpha virt. eigenvalues --    1.76863   1.77591   1.83227   1.84866   1.87205
 Alpha virt. eigenvalues --    1.88192   1.95166   2.01058   2.01932   2.02726
 Alpha virt. eigenvalues --    2.06072   2.06329   2.08106   2.08515   2.10491
 Alpha virt. eigenvalues --    2.11865   2.14760   2.17640   2.25735   2.28116
 Alpha virt. eigenvalues --    2.29063   2.41650   3.05293   4.65209   4.91368
 Alpha virt. eigenvalues --    4.91983   4.94869   7.10810   7.11410   7.11779
 Alpha virt. eigenvalues --    7.12711   7.12734   7.14733   7.14764   8.29281
 Alpha virt. eigenvalues --    8.29627   8.31603   8.33258   8.37727   8.61379
 Alpha virt. eigenvalues --    8.61602   8.64333   8.65378   8.71622   9.03762
 Alpha virt. eigenvalues --   10.60321  11.74034  13.82772
          Condensed to atoms (all electrons):
               1          2          3          4          5          6
     1  Bi   3.046580   0.081218   0.066086   0.227434   0.222499   0.030433
     2  F    0.081218   9.579031   0.000730  -0.023346  -0.016099  -0.011632
     3  Cl   0.066086   0.000730  17.121316  -0.033177  -0.024222   0.013109
     4  Br   0.227434  -0.023346  -0.033177  34.808554  -0.007884  -0.003957
     5  I    0.222499  -0.016099  -0.024222  -0.007884   6.467432  -0.003414
     6  At   0.030433  -0.011632   0.013109  -0.003957  -0.003414   5.941529
 Mulliken charges:
               1
     1  Bi   1.325750
     2  F   -0.609902
     3  Cl  -0.143843
     4  Br   0.032376
     5  I    0.361688
     6  At   1.033932
 Sum of Mulliken charges =   2.00000
 Mulliken charges with hydrogens summed into heavy atoms:
               1
     1  Bi   1.325750
     2  F   -0.609902
     3  Cl  -0.143843
     4  Br   0.032376
     5  I    0.361688
     6  At   1.033932
 Electronic spatial extent (au):  <R**2>=           2164.7277
 Charge=              2.0000 electrons
 Dipole moment (field-independent basis, Debye):
    X=             -6.5965    Y=             -2.5198    Z=              2.5297  Tot=              7.5009
 Quadrupole moment (field-independent basis, Debye-Ang):
   XX=            -30.3820   YY=            -68.4330   ZZ=            -88.9351
   XY=              1.4915   XZ=              3.4849   YZ=              1.4713
 Traceless Quadrupole moment (field-independent basis, Debye-Ang):
   XX=             32.2014   YY=             -5.8497   ZZ=            -26.3517
   XY=              1.4915   XZ=              3.4849   YZ=              1.4713
 Octapole moment (field-independent basis, Debye-Ang**2):
  XXX=           -134.3778  YYY=            -26.6410  ZZZ=             -4.3557  XYY=              8.5650
  XXY=            -74.0669  XXZ=            -21.6736  XZZ=            -43.1341  YZZ=            -19.3945
  YYZ=            -20.0968  XYZ=             -1.7918
 Hexadecapole moment (field-independent basis, Debye-Ang**3):
 XXXX=          -1116.2200 YYYY=          -1047.2186 ZZZZ=           -698.9173 XXXY=            -72.4791
 XXXZ=              6.7689 YYYX=             15.8670 YYYZ=            -21.6873 ZZZX=             24.7100
 ZZZY=             10.6600 XXYY=           -349.3649 XXZZ=           -354.5416 YYZZ=           -333.8174
 XXYZ=             11.3119 YYXZ=            -10.8631 ZZXY=             12.4522
 N-N= 3.434458616690D+02 E-N=-8.201664088300D+03  KE= 3.138869644896D+03
 Range of M.O.s used for correlation:     1   157
 NBasis=   157 NAE=    39 NBE=    39 NFC=     0 NFV=     0
 NROrb=    157 NOA=    39 NOB=    39 NVA=   118 NVB=   118
 Keep R1 and R2 ints in memory in canonical form, NReq=160130790.
 Orbital symmetries:
       Occupied  (A) (A) (A) (A) (A) (A) (A) (A) (A) (A) (A) (A)
                 (A) (A) (A) (A) (A) (A) (A) (A) (A) (A) (A) (A)
                 (A) (A) (A) (A) (A) (A) (A) (A) (A) (A) (A) (A)
                 (A) (A) (A)
       Virtual   (A) (A) (A) (A) (A) (A) (A) (A) (A) (A) (A) (A)
                 (A) (A) (A) (A) (A) (A) (A) (A) (A) (A) (A) (A)
                 (A) (A) (A) (A) (A) (A) (A) (A) (A) (A) (A) (A)
                 (A) (A) (A) (A) (A) (A) (A) (A) (A) (A) (A) (A)
                 (A) (A) (A) (A) (A) (A) (A) (A) (A) (A) (A) (A)
                 (A) (A) (A) (A) (A) (A) (A) (A) (A) (A) (A) (A)
                 (A) (A) (A) (A) (A) (A) (A) (A) (A) (A) (A) (A)
                 (A) (A) (A) (A) (A) (A) (A) (A) (A) (A) (A) (A)
                 (A) (A) (A) (A) (A) (A) (A) (A) (A) (A) (A) (A)
                 (A) (A) (A) (A) (A) (A) (A) (A) (A) (A)
    24 initial guesses have been made.
 Convergence on wavefunction:    0.001000000000000
 Iteration     1 Dimension    24 NMult     0 NNew     24
 CISAX will form    24 AO SS matrices at one time.
 New state      1 was old state     16
 Iteration     2 Dimension    48 NMult    24 NNew     24
 Iteration     3 Dimension    54 NMult    48 NNew      6
 Iteration     4 Dimension    60 NMult    54 NNew      6
 Iteration     5 Dimension    66 NMult    60 NNew      6
 Iteration     6 Dimension    72 NMult    66 NNew      6
 ***********************************************************************
 Stability analysis using <AA,BB:AA,BB> singles matrix:
 ***********************************************************************

 Eigenvectors of the stability matrix:
 
 Eigenvector   1:      Triplet-A    Eigenvalue=-0.1497511  <S**2>=2.000
      33 -> 40        -0.30114
      34 -> 40         0.44646
      34 -> 41         0.16010
      35 -> 40        -0.15044
      37 -> 40         0.27006
      37 -> 41         0.12069
      38 -> 40         0.11255
 SavETr:  write IOETrn=   770 NScale= 10 NData=  16 NLR=1 NState=    1 LETran=      28.
 The wavefunction has an RHF -> UHF instability.
 Keep R1 and R2 ints in memory in canonical form, NReq=157475027.
 The two search directions are symmetric.
 Gradient too large for Newton-Raphson -- use scaled steepest descent instead.
     Accept linear search using points  5 and  6.
 Gradient too large for Newton-Raphson -- use scaled steepest descent instead.
     Minimum is close to point  3 DX=  1.32D-01 DF= -1.26D-04 DXR=  9.94D-02 DFR=  1.05D-02 which will be used.
 Gradient too large for Newton-Raphson -- use scaled steepest descent instead.
     Minimum is close to point  2 DX=  4.46D-02 DF= -3.58D-06 DXR=  2.89D-02 DFR=  8.35D-04 which will be used.
 Gradient too large for Newton-Raphson -- use scaled steepest descent instead.
     Accept linear search using points  1 and  2.
 Gradient too large for Newton-Raphson -- use scaled steepest descent instead.
     Accept linear search using points  1 and  2.
 Gradient too large for Newton-Raphson -- use scaled steepest descent instead.
     Accept linear search using points  1 and  2.
 Gradient too large for Newton-Raphson -- use scaled steepest descent instead.
     Minimum is close to point  2 DX=  4.90D-02 DF= -1.41D-06 DXR=  4.27D-02 DFR=  1.82D-03 which will be used.
 Gradient too large for Newton-Raphson -- use scaled steepest descent instead.
     Minimum is close to point  2 DX=  1.10D-01 DF= -5.88D-06 DXR=  9.09D-02 DFR=  8.32D-03 which will be used.
 Gradient too large for Newton-Raphson -- use scaled steepest descent instead.
     Minimum is close to point  2 DX=  4.96D-02 DF= -1.07D-06 DXR=  3.97D-02 DFR=  1.58D-03 which will be used.
 Gradient too large for Newton-Raphson -- use scaled steepest descent instead.
     Accept linear search using points  1 and  2.
     Minimum is close to point  2 DX= -8.66D-02 DF= -5.03D-06 DXR=  7.78D-02 DFR=  7.99D-03 which will be used.
 Gradient too large for Newton-Raphson -- use scaled steepest descent instead.
     Accept linear search using points  1 and  2.
 Gradient too large for Newton-Raphson -- use scaled steepest descent instead.
     Minimum is close to point  2 DX=  4.87D-02 DF= -1.05D-06 DXR=  4.24D-02 DFR=  1.80D-03 which will be used.
 Gradient too large for Newton-Raphson -- use scaled steepest descent instead.
     Minimum is close to point  2 DX=  4.48D-02 DF= -8.61D-07 DXR=  3.92D-02 DFR=  1.54D-03 which will be used.
 Gradient too large for Newton-Raphson -- use scaled steepest descent instead.
     Minimum is close to point  2 DX=  4.33D-02 DF= -7.65D-07 DXR=  3.79D-02 DFR=  1.44D-03 which will be used.
 Gradient too large for Newton-Raphson -- use scaled steepest descent instead.
     Minimum is close to point  2 DX=  3.05D-02 DF= -3.69D-07 DXR=  2.69D-02 DFR=  7.27D-04 which will be used.
 Gradient too large for Newton-Raphson -- use scaled steepest descent instead.
     Minimum is close to point  2 DX=  2.26D-02 DF= -1.94D-07 DXR=  2.01D-02 DFR=  4.04D-04 which will be used.
 Gradient too large for Newton-Raphson -- use scaled steepest descent instead.
     Minimum is close to point  2 DX=  4.65D-03 DF= -8.07D-09 DXR=  4.21D-03 DFR=  1.78D-05 which will be used.
 Gradient too large for Newton-Raphson -- use scaled steepest descent instead.
     Accept linear search using points  1 and  2.
     Minimum is close to point  2 DX= -6.82D-03 DF= -1.98D-08 DXR=  6.24D-03 DFR=  4.63D-05 which will be used.
 Gradient too large for Newton-Raphson -- use scaled steepest descent instead.
     Accept linear search using points  1 and  2.
     Minimum is close to point  2 DX= -2.06D-02 DF= -1.73D-07 DXR=  1.91D-02 DFR=  4.33D-04 which will be used.
 Gradient too large for Newton-Raphson -- use scaled steepest descent instead.
     Accept linear search using points  1 and  2.
     Minimum is close to point  2 DX= -3.45D-02 DF= -4.64D-07 DXR=  3.24D-02 DFR=  1.24D-03 which will be used.
 Gradient too large for Newton-Raphson -- use scaled steepest descent instead.
     Accept linear search using points  1 and  2.
     Minimum is close to point  2 DX= -5.00D-02 DF= -9.35D-07 DXR=  4.76D-02 DFR=  2.68D-03 which will be used.
 Gradient too large for Newton-Raphson -- use scaled steepest descent instead.
     Accept linear search using points  1 and  2.
     Minimum is close to point  2 DX= -6.52D-02 DF= -1.51D-06 DXR=  6.30D-02 DFR=  4.66D-03 which will be used.
 Gradient too large for Newton-Raphson -- use scaled steepest descent instead.
     Accept linear search using points  1 and  2.
     Minimum is close to point  2 DX= -4.40D-04 DF= -5.91D-11 DXR=  4.40D-04 DFR=  1.94D-07 which will be used.
 Gradient too large for Newton-Raphson -- use scaled steepest descent instead.
 Gradient too large for Newton-Raphson -- use scaled steepest descent instead.
     Accept linear search using points  1 and  2.
     Minimum is close to point  2 DX= -8.23D-02 DF= -1.99D-06 DXR=  8.09D-02 DFR=  7.68D-03 which will be used.
 Gradient too large for Newton-Raphson -- use scaled steepest descent instead.
     Accept linear search using points  1 and  2.
     Minimum is close to point  2 DX= -9.79D-02 DF= -2.68D-06 DXR=  9.77D-02 DFR=  1.11D-02 which will be used.
 Gradient too large for Newton-Raphson -- use scaled steepest descent instead.
     Accept linear search using points  1 and  2.
     Minimum is close to point  2 DX= -3.70D-02 DF= -3.37D-07 DXR=  3.84D-02 DFR=  1.48D-03 which will be used.
 Gradient too large for Newton-Raphson -- use scaled steepest descent instead.
 Gradient too large for Newton-Raphson -- use scaled steepest descent instead.
     Minimum is close to point  2 DX=  3.82D-02 DF= -2.62D-07 DXR=  3.68D-02 DFR=  1.35D-03 which will be used.
 Gradient too large for Newton-Raphson -- use scaled steepest descent instead.
 Gradient too large for Newton-Raphson -- use scaled steepest descent instead.
     Accept linear search using points  1 and  2.
 Gradient too large for Newton-Raphson -- use scaled steepest descent instead.
     Minimum is close to point  2 DX=  8.67D-02 DF= -8.42D-07 DXR=  7.31D-02 DFR=  5.37D-03 which will be used.
 Gradient too large for Newton-Raphson -- use scaled steepest descent instead.
     Minimum is close to point  2 DX=  6.73D-02 DF= -4.91D-07 DXR=  5.76D-02 DFR=  3.33D-03 which will be used.
 Gradient too large for Newton-Raphson -- use scaled steepest descent instead.
     Accept linear search using points  1 and  2.
     Minimum is close to point  2 DX= -2.85D-02 DF= -1.12D-07 DXR=  2.43D-02 DFR=  8.03D-04 which will be used.
 Gradient too large for Newton-Raphson -- use scaled steepest descent instead.
     Accept linear search using points  1 and  2.
 Gradient too large for Newton-Raphson -- use scaled steepest descent instead.
     Accept linear search using points  1 and  2.
     Minimum is close to point  2 DX= -2.20D-03 DF= -5.94D-10 DXR=  2.00D-03 DFR=  4.77D-06 which will be used.
 Gradient too large for Newton-Raphson -- use scaled steepest descent instead.
     Accept linear search using points  1 and  2.
     Minimum is close to point  2 DX= -7.51D-03 DF= -6.69D-09 DXR=  6.87D-03 DFR=  5.64D-05 which will be used.
 Gradient too large for Newton-Raphson -- use scaled steepest descent instead.
     Accept linear search using points  1 and  2.
     Minimum is close to point  2 DX= -9.83D-03 DF= -1.10D-08 DXR=  9.02D-03 DFR=  9.68D-05 which will be used.
 Gradient too large for Newton-Raphson -- use scaled steepest descent instead.
     Accept linear search using points  1 and  2.
     Minimum is close to point  2 DX= -1.16D-02 DF= -1.49D-08 DXR=  1.07D-02 DFR=  1.36D-04 which will be used.
 Gradient too large for Newton-Raphson -- use scaled steepest descent instead.
     Accept linear search using points  1 and  2.
     Minimum is close to point  2 DX= -1.04D-02 DF= -1.15D-08 DXR=  9.56D-03 DFR=  1.09D-04 which will be used.
 Gradient too large for Newton-Raphson -- use scaled steepest descent instead.
     Accept linear search using points  1 and  2.
     Minimum is close to point  2 DX= -8.83D-03 DF= -7.97D-09 DXR=  8.09D-03 DFR=  7.82D-05 which will be used.
 Gradient too large for Newton-Raphson -- use scaled steepest descent instead.
     Accept linear search using points  1 and  2.
     Minimum is close to point  2 DX= -4.22D-03 DF= -1.75D-09 DXR=  3.85D-03 DFR=  1.77D-05 which will be used.
 Gradient too large for Newton-Raphson -- use scaled steepest descent instead.
     Minimum is close to point  2 DX= -8.96D-07 DF= -4.55D-13 DXR=  8.15D-07 DFR=  4.70D-09 which will be used.
 Gradient too large for Newton-Raphson -- use scaled steepest descent instead.
     Minimum is close to point  2 DX=  1.17D-02 DF= -1.05D-08 DXR=  1.05D-02 DFR=  1.10D-04 which will be used.
 Gradient too large for Newton-Raphson -- use scaled steepest descent instead.
     Minimum is close to point  2 DX=  2.09D-02 DF= -3.24D-08 DXR=  1.86D-02 DFR=  3.47D-04 which will be used.
 Gradient too large for Newton-Raphson -- use scaled steepest descent instead.
     Minimum is close to point  2 DX=  3.70D-02 DF= -9.74D-08 DXR=  3.25D-02 DFR=  1.06D-03 which will be used.
 LinEq1:  Iter=  0 NonCon=     1 RMS=1.35D-04 Max=7.81D-03 NDo=     1
 AX will form     1 AO Fock derivatives at one time.
 LinEq1:  Iter=  1 NonCon=     1 RMS=9.57D-05 Max=2.74D-03 NDo=     1
 LinEq1:  Iter=  2 NonCon=     1 RMS=1.03D-05 Max=4.09D-04 NDo=     1
 LinEq1:  Iter=  3 NonCon=     1 RMS=3.56D-06 Max=1.00D-04 NDo=     1
 LinEq1:  Iter=  4 NonCon=     1 RMS=1.01D-06 Max=3.16D-05 NDo=     1
 LinEq1:  Iter=  5 NonCon=     1 RMS=3.50D-07 Max=9.43D-06 NDo=     1
 LinEq1:  Iter=  6 NonCon=     1 RMS=1.70D-07 Max=5.89D-06 NDo=     1
 LinEq1:  Iter=  7 NonCon=     1 RMS=8.01D-08 Max=2.58D-06 NDo=     1
 LinEq1:  Iter=  8 NonCon=     1 RMS=2.46D-08 Max=5.54D-07 NDo=     1
 LinEq1:  Iter=  9 NonCon=     1 RMS=9.77D-09 Max=2.49D-07 NDo=     1
 LinEq1:  Iter= 10 NonCon=     0 RMS=4.02D-09 Max=8.68D-08 NDo=     1
 Linear equations converged to 9.594D-09 9.594D-08 after    10 iterations.
 LinEq1:  Iter=  0 NonCon=     1 RMS=1.05D-04 Max=3.94D-03 NDo=     1
 LinEq1:  Iter=  1 NonCon=     1 RMS=7.70D-05 Max=2.43D-03 NDo=     1
 LinEq1:  Iter=  2 NonCon=     1 RMS=2.43D-05 Max=6.79D-04 NDo=     1
 LinEq1:  Iter=  3 NonCon=     1 RMS=1.09D-05 Max=5.17D-04 NDo=     1
 LinEq1:  Iter=  4 NonCon=     1 RMS=4.98D-06 Max=1.45D-04 NDo=     1
 LinEq1:  Iter=  5 NonCon=     1 RMS=1.88D-06 Max=7.33D-05 NDo=     1
 LinEq1:  Iter=  6 NonCon=     1 RMS=7.48D-07 Max=2.52D-05 NDo=     1
 LinEq1:  Iter=  7 NonCon=     1 RMS=2.92D-07 Max=7.41D-06 NDo=     1
 LinEq1:  Iter=  8 NonCon=     1 RMS=1.12D-07 Max=3.23D-06 NDo=     1
 LinEq1:  Iter=  9 NonCon=     1 RMS=4.85D-08 Max=1.32D-06 NDo=     1
 LinEq1:  Iter= 10 NonCon=     1 RMS=1.96D-08 Max=5.79D-07 NDo=     1
 LinEq1:  Iter= 11 NonCon=     1 RMS=1.13D-08 Max=3.24D-07 NDo=     1
 LinEq1:  Iter= 12 NonCon=     0 RMS=3.10D-09 Max=6.40D-08 NDo=     1
 Linear equations converged to 9.594D-09 9.594D-08 after    12 iterations.
 Incorrect curvature in search direction -- initial direction reversed.
 Gradient too large for Newton-Raphson -- use scaled steepest descent instead.
     Accept linear search using points  1 and  2.
     Minimum is close to point  2 DX= -1.20D-02 DF= -6.52D-08 DXR=  1.11D-02 DFR=  1.46D-04 which will be used.
 Gradient too large for Newton-Raphson -- use scaled steepest descent instead.
     Accept linear search using points  1 and  2.
     Minimum is close to point  2 DX= -9.45D-03 DF= -1.18D-08 DXR=  8.67D-03 DFR=  8.95D-05 which will be used.
 Gradient too large for Newton-Raphson -- use scaled steepest descent instead.
     Accept linear search using points  1 and  2.
     Minimum is close to point  2 DX= -4.51D-03 DF= -2.02D-09 DXR=  4.12D-03 DFR=  2.03D-05 which will be used.
 Gradient too large for Newton-Raphson -- use scaled steepest descent instead.
     Minimum is close to point  2 DX=  6.31D-03 DF= -2.95D-09 DXR=  5.71D-03 DFR=  3.26D-05 which will be used.
 LinEq1:  Iter=  0 NonCon=     1 RMS=1.26D-04 Max=5.04D-03 NDo=     1
 LinEq1:  Iter=  1 NonCon=     1 RMS=9.40D-05 Max=2.39D-03 NDo=     1
 LinEq1:  Iter=  2 NonCon=     1 RMS=1.35D-05 Max=7.75D-04 NDo=     1
 LinEq1:  Iter=  3 NonCon=     1 RMS=5.62D-06 Max=1.67D-04 NDo=     1
 LinEq1:  Iter=  4 NonCon=     1 RMS=1.94D-06 Max=5.34D-05 NDo=     1
 LinEq1:  Iter=  5 NonCon=     1 RMS=9.12D-07 Max=2.02D-05 NDo=     1
 LinEq1:  Iter=  6 NonCon=     1 RMS=4.34D-07 Max=1.81D-05 NDo=     1
 LinEq1:  Iter=  7 NonCon=     1 RMS=1.13D-07 Max=3.92D-06 NDo=     1
 LinEq1:  Iter=  8 NonCon=     1 RMS=3.30D-08 Max=9.97D-07 NDo=     1
 LinEq1:  Iter=  9 NonCon=     1 RMS=1.33D-08 Max=3.46D-07 NDo=     1
 LinEq1:  Iter= 10 NonCon=     1 RMS=5.18D-09 Max=1.10D-07 NDo=     1
 LinEq1:  Iter= 11 NonCon=     0 RMS=2.36D-09 Max=6.01D-08 NDo=     1
 Linear equations converged to 9.594D-09 9.594D-08 after    11 iterations.
 Incorrect curvature in search direction -- initial direction reversed.
 Gradient too large for Newton-Raphson -- use scaled steepest descent instead.
     Minimum is close to point  2 DX=  2.35D-02 DF= -1.82D-07 DXR=  2.09D-02 DFR=  4.37D-04 which will be used.
 Gradient too large for Newton-Raphson -- use scaled steepest descent instead.
     Accept linear search using points  1 and  2.
     Minimum is close to point  2 DX= -1.77D-03 DF= -5.80D-10 DXR=  1.61D-03 DFR=  3.10D-06 which will be used.
 Gradient too large for Newton-Raphson -- use scaled steepest descent instead.
     Minimum is close to point  2 DX=  3.97D-02 DF= -1.76D-07 DXR=  3.48D-02 DFR=  1.22D-03 which will be used.
 Gradient too large for Newton-Raphson -- use scaled steepest descent instead.
     Minimum is close to point  2 DX=  8.69D-02 DF= -7.08D-07 DXR=  7.32D-02 DFR=  5.39D-03 which will be used.
 Gradient too large for Newton-Raphson -- use scaled steepest descent instead.
     Minimum is close to point  2 DX=  2.55D-02 DF= -5.52D-08 DXR=  2.08D-02 DFR=  4.33D-04 which will be used.
 Gradient too large for Newton-Raphson -- use scaled steepest descent instead.
     Accept linear search using points  1 and  2.
     Minimum is close to point  2 DX= -9.37D-02 DF= -1.17D-06 DXR=  8.47D-02 DFR=  9.46D-03 which will be used.
 Gradient too large for Newton-Raphson -- use scaled steepest descent instead.
     Accept linear search using points  1 and  2.
 Gradient too large for Newton-Raphson -- use scaled steepest descent instead.
     Minimum is close to point  2 DX=  7.25D-02 DF= -4.87D-07 DXR=  6.18D-02 DFR=  3.83D-03 which will be used.
 Gradient too large for Newton-Raphson -- use scaled steepest descent instead.
     Minimum is close to point  2 DX=  1.10D-01 DF= -1.08D-06 DXR=  9.11D-02 DFR=  8.37D-03 which will be used.
 Gradient too large for Newton-Raphson -- use scaled steepest descent instead.
     Minimum is close to point  2 DX=  5.61D-02 DF= -2.67D-07 DXR=  4.47D-02 DFR=  2.00D-03 which will be used.
 Gradient too large for Newton-Raphson -- use scaled steepest descent instead.
     Accept linear search using points  1 and  2.
     Minimum is close to point  2 DX= -7.53D-02 DF= -8.00D-07 DXR=  6.69D-02 DFR=  5.97D-03 which will be used.
 Gradient too large for Newton-Raphson -- use scaled steepest descent instead.
     Accept linear search using points  1 and  2.
 Gradient too large for Newton-Raphson -- use scaled steepest descent instead.
     Minimum is close to point  2 DX=  5.07D-02 DF= -2.76D-07 DXR=  4.41D-02 DFR=  1.95D-03 which will be used.
 Gradient too large for Newton-Raphson -- use scaled steepest descent instead.
     Minimum is close to point  2 DX=  9.20D-02 DF= -8.68D-07 DXR=  7.72D-02 DFR=  6.00D-03 which will be used.
 Gradient too large for Newton-Raphson -- use scaled steepest descent instead.
     Minimum is close to point  2 DX=  3.06D-02 DF= -9.24D-08 DXR=  2.48D-02 DFR=  6.18D-04 which will be used.
 Gradient too large for Newton-Raphson -- use scaled steepest descent instead.
     Accept linear search using points  1 and  2.
     Minimum is close to point  2 DX= -8.93D-02 DF= -1.27D-06 DXR=  8.04D-02 DFR=  8.54D-03 which will be used.
 Gradient too large for Newton-Raphson -- use scaled steepest descent instead.
     Accept linear search using points  1 and  2.
 Gradient too large for Newton-Raphson -- use scaled steepest descent instead.
     Minimum is close to point  2 DX=  6.62D-02 DF= -5.06D-07 DXR=  5.67D-02 DFR=  3.23D-03 which will be used.
 Gradient too large for Newton-Raphson -- use scaled steepest descent instead.
     Minimum is close to point  2 DX=  9.98D-02 DF= -1.11D-06 DXR=  8.32D-02 DFR=  6.96D-03 which will be used.
 Gradient too large for Newton-Raphson -- use scaled steepest descent instead.
     Minimum is close to point  2 DX=  3.95D-02 DF= -1.65D-07 DXR=  3.18D-02 DFR=  1.01D-03 which will be used.
 Gradient too large for Newton-Raphson -- use scaled steepest descent instead.
     Accept linear search using points  1 and  2.
     Minimum is close to point  2 DX= -8.89D-02 DF= -1.37D-06 DXR=  8.00D-02 DFR=  8.49D-03 which will be used.
 Gradient too large for Newton-Raphson -- use scaled steepest descent instead.
     Accept linear search using points  1 and  2.
 Gradient too large for Newton-Raphson -- use scaled steepest descent instead.
     Minimum is close to point  2 DX=  6.11D-02 DF= -4.62D-07 DXR=  5.26D-02 DFR=  2.78D-03 which will be used.
 Gradient too large for Newton-Raphson -- use scaled steepest descent instead.
     Minimum is close to point  2 DX=  9.50D-02 DF= -1.07D-06 DXR=  7.95D-02 DFR=  6.36D-03 which will be used.
 Gradient too large for Newton-Raphson -- use scaled steepest descent instead.
     Minimum is close to point  2 DX=  2.47D-02 DF= -6.95D-08 DXR=  2.02D-02 DFR=  4.08D-04 which will be used.
 Gradient too large for Newton-Raphson -- use scaled steepest descent instead.
     Accept linear search using points  1 and  2.
     Minimum is close to point  2 DX= -9.78D-02 DF= -1.73D-06 DXR=  8.87D-02 DFR=  1.04D-02 which will be used.
 Gradient too large for Newton-Raphson -- use scaled steepest descent instead.
     Accept linear search using points  1 and  2.
 Gradient too large for Newton-Raphson -- use scaled steepest descent instead.
 Gradient too large for Newton-Raphson -- use scaled steepest descent instead.
     Accept linear search using points  1 and  2.
     Minimum is close to point  2 DX= -3.35D-02 DF= -2.00D-07 DXR=  3.14D-02 DFR=  1.17D-03 which will be used.
 Gradient too large for Newton-Raphson -- use scaled steepest descent instead.
     Accept linear search using points  1 and  2.
     Minimum is close to point  2 DX= -1.50D-02 DF= -3.91D-08 DXR=  1.39D-02 DFR=  2.28D-04 which will be used.
 Gradient too large for Newton-Raphson -- use scaled steepest descent instead.
     Minimum is close to point  2 DX=  2.44D-03 DF= -8.38D-10 DXR=  2.21D-03 DFR=  4.90D-06 which will be used.
 Gradient too large for Newton-Raphson -- use scaled steepest descent instead.
     Minimum is close to point  2 DX=  2.86D-02 DF= -1.10D-07 DXR=  2.54D-02 DFR=  6.44D-04 which will be used.
 Gradient too large for Newton-Raphson -- use scaled steepest descent instead.
     Minimum is close to point  2 DX=  5.08D-02 DF= -3.32D-07 DXR=  4.42D-02 DFR=  1.95D-03 which will be used.
 Gradient too large for Newton-Raphson -- use scaled steepest descent instead.
     Minimum is close to point  2 DX=  7.81D-02 DF= -7.46D-07 DXR=  6.63D-02 DFR=  4.42D-03 which will be used.
 Gradient too large for Newton-Raphson -- use scaled steepest descent instead.
     Minimum is close to point  2 DX=  1.02D-03 DF= -1.22D-10 DXR=  8.52D-04 DFR=  7.23D-07 which will be used.
 Gradient too large for Newton-Raphson -- use scaled steepest descent instead.
     Accept linear search using points  1 and  2.
 Gradient too large for Newton-Raphson -- use scaled steepest descent instead.
     Accept linear search using points  1 and  2.
     Minimum is close to point  2 DX= -1.19D-02 DF= -2.38D-08 DXR=  1.10D-02 DFR=  1.44D-04 which will be used.
 Gradient too large for Newton-Raphson -- use scaled steepest descent instead.
     Minimum is close to point  2 DX=  5.75D-03 DF= -4.44D-09 DXR=  5.20D-03 DFR=  2.70D-05 which will be used.
 Gradient too large for Newton-Raphson -- use scaled steepest descent instead.
     Minimum is close to point  2 DX=  2.39D-02 DF= -7.35D-08 DXR=  2.13D-02 DFR=  4.53D-04 which will be used.
 Gradient too large for Newton-Raphson -- use scaled steepest descent instead.
     Minimum is close to point  2 DX=  4.65D-02 DF= -2.64D-07 DXR=  4.05D-02 DFR=  1.64D-03 which will be used.
 Gradient too large for Newton-Raphson -- use scaled steepest descent instead.
     Minimum is close to point  2 DX=  6.48D-02 DF= -4.91D-07 DXR=  5.56D-02 DFR=  3.10D-03 which will be used.
 Gradient too large for Newton-Raphson -- use scaled steepest descent instead.
     Accept linear search using points  1 and  2.
     Minimum is close to point  2 DX= -7.99D-03 DF= -9.69D-09 DXR=  6.70D-03 DFR=  6.18D-05 which will be used.
 Gradient too large for Newton-Raphson -- use scaled steepest descent instead.
     Accept linear search using points  1 and  2.
 Gradient too large for Newton-Raphson -- use scaled steepest descent instead.
     Accept linear search using points  1 and  2.
     Minimum is close to point  2 DX= -7.56D-03 DF= -8.62D-09 DXR=  6.92D-03 DFR=  5.71D-05 which will be used.
 Gradient too large for Newton-Raphson -- use scaled steepest descent instead.
     Minimum is close to point  2 DX=  5.13D-03 DF= -3.20D-09 DXR=  4.64D-03 DFR=  2.16D-05 which will be used.
 Gradient too large for Newton-Raphson -- use scaled steepest descent instead.
     Minimum is close to point  2 DX=  2.32D-02 DF= -6.18D-08 DXR=  2.06D-02 DFR=  4.25D-04 which will be used.
 Gradient too large for Newton-Raphson -- use scaled steepest descent instead.
     Minimum is close to point  2 DX=  3.72D-02 DF= -1.52D-07 DXR=  3.27D-02 DFR=  1.07D-03 which will be used.
 Gradient too large for Newton-Raphson -- use scaled steepest descent instead.
     Minimum is close to point  2 DX=  5.49D-02 DF= -3.15D-07 DXR=  4.75D-02 DFR=  2.26D-03 which will be used.
 Gradient too large for Newton-Raphson -- use scaled steepest descent instead.
     Minimum is close to point  2 DX=  6.83D-02 DF= -4.67D-07 DXR=  5.85D-02 DFR=  3.43D-03 which will be used.
 Gradient too large for Newton-Raphson -- use scaled steepest descent instead.
     Accept linear search using points  1 and  2.
     Minimum is close to point  2 DX= -9.18D-03 DF= -1.09D-08 DXR=  7.71D-03 DFR=  8.17D-05 which will be used.
 Gradient too large for Newton-Raphson -- use scaled steepest descent instead.
     Accept linear search using points  1 and  2.
 Gradient too large for Newton-Raphson -- use scaled steepest descent instead.
     Accept linear search using points  1 and  2.
     Minimum is close to point  2 DX= -8.63D-03 DF= -9.38D-09 DXR=  7.91D-03 DFR=  7.45D-05 which will be used.
 Gradient too large for Newton-Raphson -- use scaled steepest descent instead.
     Minimum is close to point  2 DX= -5.39D-04 DF= -3.00D-11 DXR=  4.91D-04 DFR=  2.45D-07 which will be used.
 Gradient too large for Newton-Raphson -- use scaled steepest descent instead.
     Minimum is close to point  2 DX=  1.27D-02 DF= -1.54D-08 DXR=  1.14D-02 DFR=  1.30D-04 which will be used.
 Gradient too large for Newton-Raphson -- use scaled steepest descent instead.
     Minimum is close to point  2 DX=  2.24D-02 DF= -4.60D-08 DXR=  2.00D-02 DFR=  3.99D-04 which will be used.
 Gradient too large for Newton-Raphson -- use scaled steepest descent instead.
     Minimum is close to point  2 DX=  3.52D-02 DF= -1.08D-07 DXR=  3.10D-02 DFR=  9.64D-04 which will be used.
 Gradient too large for Newton-Raphson -- use scaled steepest descent instead.
     Minimum is close to point  2 DX=  4.47D-02 DF= -1.65D-07 DXR=  3.90D-02 DFR=  1.53D-03 which will be used.
 Gradient too large for Newton-Raphson -- use scaled steepest descent instead.
     Minimum is close to point  2 DX=  5.74D-02 DF= -2.58D-07 DXR=  4.96D-02 DFR=  2.46D-03 which will be used.
 Gradient too large for Newton-Raphson -- use scaled steepest descent instead.
     Accept linear search using points  1 and  2.
     Minimum is close to point  2 DX= -2.03D-02 DF= -4.11D-08 DXR=  1.72D-02 DFR=  4.04D-04 which will be used.
 Gradient too large for Newton-Raphson -- use scaled steepest descent instead.
     Accept linear search using points  1 and  2.
 Gradient too large for Newton-Raphson -- use scaled steepest descent instead.
     Accept linear search using points  1 and  2.
     Minimum is close to point  2 DX= -3.66D-03 DF= -1.27D-09 DXR=  3.34D-03 DFR=  1.33D-05 which will be used.
 Gradient too large for Newton-Raphson -- use scaled steepest descent instead.
     Minimum is close to point  2 DX=  5.46D-03 DF= -2.24D-09 DXR=  4.94D-03 DFR=  2.44D-05 which will be used.
 Gradient too large for Newton-Raphson -- use scaled steepest descent instead.
     Minimum is close to point  2 DX=  1.39D-02 DF= -1.38D-08 DXR=  1.24D-02 DFR=  1.55D-04 which will be used.
 LinEq1:  Iter=  0 NonCon=     1 RMS=1.26D-04 Max=7.01D-03 NDo=     1
 LinEq1:  Iter=  1 NonCon=     1 RMS=9.06D-05 Max=2.31D-03 NDo=     1
 LinEq1:  Iter=  2 NonCon=     1 RMS=6.90D-06 Max=2.74D-04 NDo=     1
 LinEq1:  Iter=  3 NonCon=     1 RMS=1.87D-06 Max=5.85D-05 NDo=     1
 LinEq1:  Iter=  4 NonCon=     1 RMS=6.52D-07 Max=1.28D-05 NDo=     1
 LinEq1:  Iter=  5 NonCon=     1 RMS=2.35D-07 Max=7.71D-06 NDo=     1
 LinEq1:  Iter=  6 NonCon=     1 RMS=5.77D-08 Max=1.30D-06 NDo=     1
 LinEq1:  Iter=  7 NonCon=     1 RMS=2.12D-08 Max=4.70D-07 NDo=     1
 LinEq1:  Iter=  8 NonCon=     1 RMS=9.76D-09 Max=2.39D-07 NDo=     1
[...]
 DE(Corr)= -0.94246437     E(CORR)=     -3158.8718460     Delta=-5.43D-07
 NORM(A)=   0.12505153D+01
 Iteration Nr.  45
 **********************
 DD1Dir will call FoFMem   1 times, MxPair=      1704
 NAB=   576 NAA=   276 NBB=   276.
 DE(Corr)= -0.94246443     E(CORR)=     -3158.8718460     Delta=-6.42D-08
 NORM(A)=   0.12505135D+01
 Iteration Nr.  46
 **********************
 DD1Dir will call FoFMem   1 times, MxPair=      1704
 NAB=   576 NAA=   276 NBB=   276.
 DE(Corr)= -0.94246427     E(CORR)=     -3158.8718459     Delta= 1.61D-07
 NORM(A)=   0.12505063D+01
 Iteration Nr.  47
 **********************
 DD1Dir will call FoFMem   1 times, MxPair=      1704
 NAB=   576 NAA=   276 NBB=   276.
 DE(Corr)= -0.94246368     E(CORR)=     -3158.8718453     Delta= 5.86D-07
 NORM(A)=   0.12505007D+01
 Iteration Nr.  48
 **********************
 DD1Dir will call FoFMem   1 times, MxPair=      1704
 NAB=   576 NAA=   276 NBB=   276.
 DE(Corr)= -0.94246323     E(CORR)=     -3158.8718448     Delta= 4.57D-07
 NORM(A)=   0.12504958D+01
 Iteration Nr.  49
 **********************
 DD1Dir will call FoFMem   1 times, MxPair=      1704
 NAB=   576 NAA=   276 NBB=   276.
 DE(Corr)= -0.94246280     E(CORR)=     -3158.8718444     Delta= 4.24D-07
 NORM(A)=   0.12504931D+01
 Iteration Nr.  50
 **********************
 DD1Dir will call FoFMem   1 times, MxPair=      1704
 NAB=   576 NAA=   276 NBB=   276.
 DE(Corr)= -0.94246258     E(CORR)=     -3158.8718442     Delta= 2.24D-07
 NORM(A)=   0.12504923D+01
 Iteration Nr.  51
 **********************
 DD1Dir will call FoFMem   1 times, MxPair=      1704
 NAB=   576 NAA=   276 NBB=   276.
 DE(Corr)= -0.94246247     E(CORR)=     -3158.8718441     Delta= 1.07D-07
 NORM(A)=   0.12504929D+01
 Iteration Nr.  52
 **********************
 DD1Dir will call FoFMem   1 times, MxPair=      1704
 NAB=   576 NAA=   276 NBB=   276.
 DE(Corr)= -0.94246252     E(CORR)=     -3158.8718441     Delta=-4.79D-08
 NORM(A)=   0.12504956D+01
 Iteration Nr.  53
 **********************
 DD1Dir will call FoFMem   1 times, MxPair=      1704
 NAB=   576 NAA=   276 NBB=   276.
 DE(Corr)= -0.94246272     E(CORR)=     -3158.8718443     Delta=-1.99D-07
 NORM(A)=   0.12504983D+01
 Iteration Nr.  54
 **********************
 DD1Dir will call FoFMem   1 times, MxPair=      1704
 NAB=   576 NAA=   276 NBB=   276.
 DE(Corr)= -0.94246292     E(CORR)=     -3158.8718445     Delta=-2.00D-07
 NORM(A)=   0.12505013D+01
 Iteration Nr.  55
 **********************
 DD1Dir will call FoFMem   1 times, MxPair=      1704
 NAB=   576 NAA=   276 NBB=   276.
 DE(Corr)= -0.94246317     E(CORR)=     -3158.8718448     Delta=-2.50D-07
 NORM(A)=   0.12505034D+01
 Iteration Nr.  56
 **********************
 DD1Dir will call FoFMem   1 times, MxPair=      1704
 NAB=   576 NAA=   276 NBB=   276.
 DE(Corr)= -0.94246329     E(CORR)=     -3158.8718449     Delta=-1.20D-07
 NORM(A)=   0.12505041D+01
 Iteration Nr.  57
 **********************
 DD1Dir will call FoFMem   1 times, MxPair=      1704
 NAB=   576 NAA=   276 NBB=   276.
 DE(Corr)= -0.94246335     E(CORR)=     -3158.8718449     Delta=-6.14D-08
 NORM(A)=   0.12505037D+01
 Iteration Nr.  58
 **********************
 DD1Dir will call FoFMem   1 times, MxPair=      1704
 NAB=   576 NAA=   276 NBB=   276.
 DE(Corr)= -0.94246327     E(CORR)=     -3158.8718449     Delta= 8.06D-08
 NORM(A)=   0.12505021D+01
 Iteration Nr.  59
 **********************
 DD1Dir will call FoFMem   1 times, MxPair=      1704
 NAB=   576 NAA=   276 NBB=   276.
 DE(Corr)= -0.94246312     E(CORR)=     -3158.8718447     Delta= 1.45D-07
 NORM(A)=   0.12505004D+01
 Iteration Nr.  60
 **********************
 DD1Dir will call FoFMem   1 times, MxPair=      1704
 NAB=   576 NAA=   276 NBB=   276.
 DE(Corr)= -0.94246298     E(CORR)=     -3158.8718446     Delta= 1.43D-07
 NORM(A)=   0.12504990D+01
 Iteration Nr.  61
 **********************
 DD1Dir will call FoFMem   1 times, MxPair=      1704
 NAB=   576 NAA=   276 NBB=   276.
 DE(Corr)= -0.94246285     E(CORR)=     -3158.8718444     Delta= 1.33D-07
 NORM(A)=   0.12504980D+01
 Iteration Nr.  62
 **********************
 DD1Dir will call FoFMem   1 times, MxPair=      1704
 NAB=   576 NAA=   276 NBB=   276.
 DE(Corr)= -0.94246279     E(CORR)=     -3158.8718444     Delta= 5.89D-08
 NORM(A)=   0.12504978D+01
 Iteration Nr.  63
 **********************
 DD1Dir will call FoFMem   1 times, MxPair=      1704
 NAB=   576 NAA=   276 NBB=   276.
 DE(Corr)= -0.94246276     E(CORR)=     -3158.8718444     Delta= 3.30D-08
 NORM(A)=   0.12504979D+01
 Iteration Nr.  64
 **********************
 DD1Dir will call FoFMem   1 times, MxPair=      1704
 NAB=   576 NAA=   276 NBB=   276.
 DE(Corr)= -0.94246278     E(CORR)=     -3158.8718444     Delta=-2.87D-08
 NORM(A)=   0.12504986D+01
 Iteration Nr.  65
 **********************
 DD1Dir will call FoFMem   1 times, MxPair=      1704
 NAB=   576 NAA=   276 NBB=   276.
 DE(Corr)= -0.94246283     E(CORR)=     -3158.8718444     Delta=-4.96D-08
 NORM(A)=   0.12504994D+01
 Iteration Nr.  66
 **********************
 DD1Dir will call FoFMem   1 times, MxPair=      1704
 NAB=   576 NAA=   276 NBB=   276.
 DE(Corr)= -0.94246289     E(CORR)=     -3158.8718445     Delta=-5.61D-08
 NORM(A)=   0.12505001D+01
 Iteration Nr.  67
 **********************
 DD1Dir will call FoFMem   1 times, MxPair=      1704
 NAB=   576 NAA=   276 NBB=   276.
 DE(Corr)= -0.94246295     E(CORR)=     -3158.8718446     Delta=-6.46D-08
 NORM(A)=   0.12505010D+01
 Iteration Nr.  68
 **********************
 DD1Dir will call FoFMem   1 times, MxPair=      1704
 NAB=   576 NAA=   276 NBB=   276.
 DE(Corr)= -0.94246300     E(CORR)=     -3158.8718446     Delta=-4.21D-08
 NORM(A)=   0.12505010D+01
 Iteration Nr.  69
 **********************
 DD1Dir will call FoFMem   1 times, MxPair=      1704
 NAB=   576 NAA=   276 NBB=   276.
 DE(Corr)= -0.94246299     E(CORR)=     -3158.8718446     Delta= 5.73D-09
 NORM(A)=   0.12505010D+01
 Iteration Nr.  70
 **********************
 DD1Dir will call FoFMem   1 times, MxPair=      1704
 NAB=   576 NAA=   276 NBB=   276.
 DE(Corr)= -0.94246300     E(CORR)=     -3158.8718446     Delta=-1.26D-08
 NORM(A)=   0.12505017D+01
 Iteration Nr.  71
 **********************
 DD1Dir will call FoFMem   1 times, MxPair=      1704
 NAB=   576 NAA=   276 NBB=   276.
 DE(Corr)= -0.94246305     E(CORR)=     -3158.8718446     Delta=-4.40D-08
 NORM(A)=   0.12505014D+01
 Iteration Nr.  72
 **********************
 DD1Dir will call FoFMem   1 times, MxPair=      1704
 NAB=   576 NAA=   276 NBB=   276.
 DE(Corr)= -0.94246300     E(CORR)=     -3158.8718446     Delta= 4.87D-08
 NORM(A)=   0.12505016D+01
 Iteration Nr.  73
 **********************
 DD1Dir will call FoFMem   1 times, MxPair=      1704
 NAB=   576 NAA=   276 NBB=   276.
 DE(Corr)= -0.94246302     E(CORR)=     -3158.8718446     Delta=-1.65D-08
 NORM(A)=   0.12505012D+01
 Iteration Nr.  74
 **********************
 DD1Dir will call FoFMem   1 times, MxPair=      1704
 NAB=   576 NAA=   276 NBB=   276.
 DE(Corr)= -0.94246297     E(CORR)=     -3158.8718446     Delta= 4.87D-08
 NORM(A)=   0.12505007D+01
 Iteration Nr.  75
 **********************
 DD1Dir will call FoFMem   1 times, MxPair=      1704
 NAB=   576 NAA=   276 NBB=   276.
 DE(Corr)= -0.94246293     E(CORR)=     -3158.8718445     Delta= 3.50D-08
 NORM(A)=   0.12505005D+01
 Dominant configurations:
 ***********************
 Spin Case        I    J    A    B          Value
    AA           31        40           -0.111926D+00
    BB           39        40           -0.187943D+00
    BB           39        41            0.199675D+00
 Largest amplitude= 2.00D-01
 Time for triples=     7416.03 seconds.
 T4(CCSD)= -0.42734187D-01
 T5(CCSD)=  0.29012052D-02
 CCSD(T)= -0.31589116775D+04

 S**2, projected HF & approx projected MPn energies after annihilation of
 unwanted spin states (see manual for definitions):

 spins       (S**2,0) (S**2,1)    PUHF        PMP2        PMP3        PMP4
 annihilated
 s+1       -21.28047 -8.91399-3158.277672-3159.162510-3159.197911
 s+1,s+2     0.74320  0.25699-3157.921559-3158.807133-3158.843769
 s+1 to s+3 -0.04102  0.01155-3157.950013-3158.835403-3158.871671
 s+1 to s+4  0.00085 -0.00088-3157.948075-3158.833488-3158.869787
 s+1 to s+5 -0.00001 -0.00088-3157.948122
 s+1 to s+6  0.00000 -0.00088-3157.948121

 Discarding MO integrals.

 **********************************************************************

            Population analysis using the SCF density.

 **********************************************************************

 Orbital symmetries:
 Alpha Orbitals:
       Occupied  (A) (A) (A) (A) (A) (A) (A) (A) (A) (A) (A) (A)
                 (A) (A) (A) (A) (A) (A) (A) (A) (A) (A) (A) (A)
                 (A) (A) (A) (A) (A) (A) (A) (A) (A) (A) (A) (A)
                 (A) (A) (A)
       Virtual   (A) (A) (A) (A) (A) (A) (A) (A) (A) (A) (A) (A)
                 (A) (A) (A) (A) (A) (A) (A) (A) (A) (A) (A) (A)
                 (A) (A) (A) (A) (A) (A) (A) (A) (A) (A) (A) (A)
                 (A) (A) (A) (A) (A) (A) (A) (A) (A) (A) (A) (A)
                 (A) (A) (A) (A) (A) (A) (A) (A) (A) (A) (A) (A)
                 (A) (A) (A) (A) (A) (A) (A) (A) (A) (A) (A) (A)
                 (A) (A) (A) (A) (A) (A) (A) (A) (A) (A) (A) (A)
                 (A) (A) (A) (A) (A) (A) (A) (A) (A) (A) (A) (A)
                 (A) (A) (A) (A) (A) (A) (A) (A) (A) (A) (A) (A)
                 (A) (A) (A) (A) (A) (A) (A) (A) (A) (A)
 Beta  Orbitals:
       Occupied  (A) (A) (A) (A) (A) (A) (A) (A) (A) (A) (A) (A)
                 (A) (A) (A) (A) (A) (A) (A) (A) (A) (A) (A) (A)
                 (A) (A) (A) (A) (A) (A) (A) (A) (A) (A) (A) (A)
                 (A) (A) (A)
       Virtual   (A) (A) (A) (A) (A) (A) (A) (A) (A) (A) (A) (A)
                 (A) (A) (A) (A) (A) (A) (A) (A) (A) (A) (A) (A)
                 (A) (A) (A) (A) (A) (A) (A) (A) (A) (A) (A) (A)
                 (A) (A) (A) (A) (A) (A) (A) (A) (A) (A) (A) (A)
                 (A) (A) (A) (A) (A) (A) (A) (A) (A) (A) (A) (A)
                 (A) (A) (A) (A) (A) (A) (A) (A) (A) (A) (A) (A)
                 (A) (A) (A) (A) (A) (A) (A) (A) (A) (A) (A) (A)
                 (A) (A) (A) (A) (A) (A) (A) (A) (A) (A) (A) (A)
                 (A) (A) (A) (A) (A) (A) (A) (A) (A) (A) (A) (A)
                 (A) (A) (A) (A) (A) (A) (A) (A) (A) (A)
 The electronic state is 1-A.
 Alpha  occ. eigenvalues -- -490.34779-105.19889 -65.48753 -58.84136 -58.84112
 Alpha  occ. eigenvalues --  -58.84040 -26.57753 -10.92208 -10.15838  -8.40261
 Alpha  occ. eigenvalues --   -8.38388  -8.38375  -7.76567  -7.76313  -7.76237
 Alpha  occ. eigenvalues --   -3.51404  -3.51076  -3.50993  -3.50065  -3.50063
 Alpha  occ. eigenvalues --   -1.85893  -1.45925  -1.32534  -1.29548  -1.28133
 Alpha  occ. eigenvalues --   -1.12597  -0.97167  -0.94197  -0.93957  -0.84625
 Alpha  occ. eigenvalues --   -0.83896  -0.82776  -0.81400  -0.78968  -0.77471
 Alpha  occ. eigenvalues --   -0.73715  -0.72550  -0.72285  -0.71934
 Alpha virt. eigenvalues --   -0.43674  -0.41061  -0.28955  -0.25322  -0.20429
 Alpha virt. eigenvalues --   -0.14184  -0.13514  -0.12545  -0.11901  -0.11609
 Alpha virt. eigenvalues --   -0.11344   0.07518   0.08536   0.08738   0.09494
 Alpha virt. eigenvalues --    0.10316   0.12583   0.14475   0.14607   0.17696
 Alpha virt. eigenvalues --    0.20221   0.20384   0.21865   0.23542   0.23983
 Alpha virt. eigenvalues --    0.24649   0.25165   0.25999   0.26663   0.27502
 Alpha virt. eigenvalues --    0.28290   0.29631   0.29988   0.31056   0.33181
 Alpha virt. eigenvalues --    0.34846   0.37442   0.38215   0.39923   0.43071
 Alpha virt. eigenvalues --    0.44023   0.48593   0.51053   0.55839   0.56076
 Alpha virt. eigenvalues --    0.59838   0.61233   0.63856   0.66153   0.72110
 Alpha virt. eigenvalues --    0.75774   0.76833   0.86175   0.89164   0.97395
 Alpha virt. eigenvalues --    1.08700   1.43220   1.45547   1.46419   1.46814
 Alpha virt. eigenvalues --    1.46826   1.47687   1.48932   1.53079   1.70668
 Alpha virt. eigenvalues --    1.71677   1.72662   1.74294   1.74762   1.75327
 Alpha virt. eigenvalues --    1.75810   1.77041   1.82441   1.84679   1.85693
 Alpha virt. eigenvalues --    1.88203   1.94616   1.98653   1.99557   1.99758
 Alpha virt. eigenvalues --    2.04254   2.04471   2.07696   2.07756   2.08130
 Alpha virt. eigenvalues --    2.08744   2.11774   2.14586   2.22342   2.27228
 Alpha virt. eigenvalues --    2.27832   2.38381   3.05627   4.63979   4.88069
 Alpha virt. eigenvalues --    4.88564   4.90167   7.06912   7.07680   7.07942
 Alpha virt. eigenvalues --    7.09299   7.09334   7.12013   7.12045   8.28824
 Alpha virt. eigenvalues --    8.29570   8.30547   8.31289   8.36059   8.58111
 Alpha virt. eigenvalues --    8.58315   8.59916   8.60854   8.66587   9.06606
 Alpha virt. eigenvalues --   10.58362  11.76629  13.76942
  Beta  occ. eigenvalues -- -490.34987-105.19046 -65.48849 -58.84645 -58.84181
  Beta  occ. eigenvalues --  -58.84168 -26.56462 -10.91365 -10.16232  -8.37898
  Beta  occ. eigenvalues --   -8.37889  -8.36587  -7.78044  -7.76417  -7.76356
  Beta  occ. eigenvalues --   -3.51940  -3.51491  -3.51409  -3.50078  -3.50077
  Beta  occ. eigenvalues --   -1.81732  -1.40888  -1.37645  -1.33712  -1.24268
  Beta  occ. eigenvalues --   -1.11042  -0.93023  -0.92731  -0.86167  -0.84589
  Beta  occ. eigenvalues --   -0.83538  -0.80819  -0.78995  -0.78766  -0.75704
  Beta  occ. eigenvalues --   -0.74794  -0.73631  -0.73265  -0.71472
  Beta virt. eigenvalues --   -0.41488  -0.40359  -0.29296  -0.27666  -0.16775
  Beta virt. eigenvalues --   -0.14241  -0.13359  -0.12857  -0.12050  -0.11674
  Beta virt. eigenvalues --   -0.11495   0.06702   0.07878   0.08144   0.08780
  Beta virt. eigenvalues --    0.09429   0.12707   0.13820   0.16247   0.18610
  Beta virt. eigenvalues --    0.19017   0.21280   0.21660   0.22373   0.23857
  Beta virt. eigenvalues --    0.23901   0.24458   0.25253   0.27067   0.28333
  Beta virt. eigenvalues --    0.28775   0.29949   0.31769   0.32660   0.32929
  Beta virt. eigenvalues --    0.35680   0.36762   0.37567   0.40476   0.41786
  Beta virt. eigenvalues --    0.44016   0.49414   0.50314   0.55436   0.57911
  Beta virt. eigenvalues --    0.60257   0.63344   0.65668   0.67220   0.71972
  Beta virt. eigenvalues --    0.75924   0.77104   0.86197   0.89350   0.98077
  Beta virt. eigenvalues --    1.10055   1.42221   1.43898   1.44425   1.45379
  Beta virt. eigenvalues --    1.46241   1.46776   1.47018   1.53392   1.70934
  Beta virt. eigenvalues --    1.71554   1.72784   1.73961   1.74821   1.75707
  Beta virt. eigenvalues --    1.76299   1.77699   1.82532   1.84256   1.87309
  Beta virt. eigenvalues --    1.87411   1.94298   1.98833   1.99849   2.02070
  Beta virt. eigenvalues --    2.06592   2.07033   2.07809   2.08023   2.09950
  Beta virt. eigenvalues --    2.11605   2.14157   2.17677   2.25694   2.27949
  Beta virt. eigenvalues --    2.28551   2.41906   3.05178   4.65170   4.88890
  Beta virt. eigenvalues --    4.89620   4.94048   7.08593   7.09216   7.09485
  Beta virt. eigenvalues --    7.10371   7.10408   7.12260   7.12292   8.29122
  Beta virt. eigenvalues --    8.29740   8.31533   8.32188   8.37306   8.58902
  Beta virt. eigenvalues --    8.59126   8.62747   8.63657   8.70308   9.06396
  Beta virt. eigenvalues --   10.59166  11.76511  13.77504
          Condensed to atoms (all electrons):
               1          2          3          4          5          6
     1  Bi   3.273339   0.101099   0.021279   0.107212   0.105801   0.072085
     2  F    0.101099   9.499874   0.000269  -0.019962  -0.011067  -0.009672
     3  Cl   0.021279   0.000269  17.086717  -0.024805  -0.012528  -0.012310
     4  Br   0.107212  -0.019962  -0.024805  34.917845  -0.001774  -0.000630
     5  I    0.105801  -0.011067  -0.012528  -0.001774   6.372981  -0.000231
     6  At   0.072085  -0.009672  -0.012310  -0.000630  -0.000231   6.219712
          Atomic-Atomic Spin Densities.
               1          2          3          4          5          6
     1  Bi   0.148437  -0.083948  -0.093370   0.047401   0.041110   0.083672
     2  F   -0.083948   0.258956   0.000576   0.003591  -0.000241   0.004255
     3  Cl  -0.093370   0.000576   0.803615   0.001278  -0.000583   0.005603
     4  Br   0.047401   0.003591   0.001278  -0.553903  -0.004611  -0.004785
     5  I    0.041110  -0.000241  -0.000583  -0.004611   0.845925  -0.003289
     6  At   0.083672   0.004255   0.005603  -0.004785  -0.003289  -1.496343
 Mulliken charges and spin densities:
               1          2
     1  Bi   1.319185   0.143301
     2  F   -0.560540   0.183188
     3  Cl  -0.058622   0.717117
     4  Br   0.022113  -0.511028
     5  I    0.546819   0.878310
     6  At   0.731046  -1.410889
 Sum of Mulliken charges =   2.00000   0.00000
 Mulliken charges and spin densities with hydrogens summed into heavy atoms:
               1          2
     1  Bi   1.319185   0.143301
     2  F   -0.560540   0.183188
     3  Cl  -0.058622   0.717117
     4  Br   0.022113  -0.511028
     5  I    0.546819   0.878310
     6  At   0.731046  -1.410889
 Electronic spatial extent (au):  <R**2>=           2163.8965
 Charge=              2.0000 electrons
 Dipole moment (field-independent basis, Debye):
    X=             -0.0824    Y=             -3.5871    Z=              2.8124  Tot=              4.5589
 Quadrupole moment (field-independent basis, Debye-Ang):
   XX=            -36.3511   YY=            -66.8808   ZZ=            -83.4003
   XY=             -5.1989   XZ=              0.6766   YZ=              1.1214
 Traceless Quadrupole moment (field-independent basis, Debye-Ang):
   XX=             25.8596   YY=             -4.6701   ZZ=            -21.1896
   XY=             -5.1989   XZ=              0.6766   YZ=              1.1214
 Octapole moment (field-independent basis, Debye-Ang**2):
  XXX=           -109.7529  YYY=            -28.9101  ZZZ=              2.7023  XYY=             11.3717
  XXY=            -73.3523  XXZ=            -17.9958  XZZ=            -28.0732  YZZ=            -23.0719
  YYZ=            -19.3529  XYZ=              0.7746
 Hexadecapole moment (field-independent basis, Debye-Ang**3):
 XXXX=          -1193.3179 YYYY=          -1041.0435 ZZZZ=           -639.8283 XXXY=            -75.8216
 XXXZ=            -16.5900 YYYX=             -2.0081 YYYZ=            -23.1539 ZZZX=              8.1485
 ZZZY=             15.9292 XXYY=           -375.3349 XXZZ=           -351.3263 YYZZ=           -320.1429
 XXYZ=              4.5992 YYXZ=            -14.1540 ZZXY=            -10.6687
 N-N= 3.434458616690D+02 E-N=-8.201726767805D+03  KE= 3.139133480964D+03
 1\1\GINC-GAMBA\SP\UCCSD(T)-FC\Gen\At1Bi1Br1Cl1F1I1(2+)\IRIKURA\22-May-
 2017\0\\# CCSD(T,maxcyc=100)/chkbas geom=check guess=check scf=xqc\\BE
 B step 10: low-spin CCSD(T) for dication of BiFClBrIAt\\2,1\Bi,0,-0.93
 65127913,0.6634957207,-0.0229682709\F,0,-0.9148015666,0.6506383511,2.0
 117615586\Cl,0,-0.9482875525,0.673187048,-2.5888735473\Br,0,-2.2655976
 762,2.8869666536,0.0529192917\I,0,-2.4412175827,-1.7333450332,0.064793
 6077\At,0,1.9930976294,0.7281258298,0.0723673602\\Version=ES64L-G09Rev
 D.01\State=1-A\HF=-3157.9293816\MP2=-3158.8149698\MP3=-3158.8515865\MP
 4D=-3158.8724218\MP4DQ=-3158.8533282\PUHF=-3158.2776722\PMP2-0=-3159.1
 625101\PMP3-0=-3159.1979108\MP4SDQ=-3158.865407\CCSD=-3158.8718445\CCS
 D(T)=-3158.9116775\S2=1.826943\S2-1=1.727375\S2A=4.527265\RMSD=1.735e-
 09\PG=C01 [X(At1Bi1Br1Cl1F1I1)]\\@


 Human beings, who are almost unique in having the
 ability to learn from the experience of others, are
 also remarkable for their apparent disinclination to do so.
                               -- Douglas Adams,
                                Last Chance to See
 Job cpu time:       0 days 13 hours  3 minutes 31.0 seconds.
 File lengths (MBytes):  RWF=   8146 Int=      0 D2E=      0 Chk=      7 Scr=      1
 Normal termination of Gaussian 09 at Mon May 22 11:40:46 2017.
