 Entering Gaussian System, Link 0=g09
 Initial command:
 /usr/local/apps/g09/l1.exe "/wrk/irikura/Gau-31580.inp" -scrdir="/wrk/irikura/"
 Entering Link 1 = /usr/local/apps/g09/l1.exe PID=     31582.
  
 Copyright (c) 1988,1990,1992,1993,1995,1998,2003,2009,2013,
            Gaussian, Inc.  All Rights Reserved.
  
 This is part of the Gaussian(R) 09 program.  It is based on
 the Gaussian(R) 03 system (copyright 2003, Gaussian, Inc.),
 the Gaussian(R) 98 system (copyright 1998, Gaussian, Inc.),
 the Gaussian(R) 94 system (copyright 1995, Gaussian, Inc.),
 the Gaussian 92(TM) system (copyright 1992, Gaussian, Inc.),
 the Gaussian 90(TM) system (copyright 1990, Gaussian, Inc.),
 the Gaussian 88(TM) system (copyright 1988, Gaussian, Inc.),
 the Gaussian 86(TM) system (copyright 1986, Carnegie Mellon
 University), and the Gaussian 82(TM) system (copyright 1983,
 Carnegie Mellon University). Gaussian is a federally registered
 trademark of Gaussian, Inc.
  
 This software contains proprietary and confidential information,
 including trade secrets, belonging to Gaussian, Inc.
  
 This software is provided under written license and may be
 used, copied, transmitted, or stored only in accord with that
 written license.
  
 The following legend is applicable only to US Government
 contracts under FAR:
  
                    RESTRICTED RIGHTS LEGEND
  
 Use, reproduction and disclosure by the US Government is
 subject to restrictions as set forth in subparagraphs (a)
 and (c) of the Commercial Computer Software - Restricted
 Rights clause in FAR 52.227-19.
  
 Gaussian, Inc.
 340 Quinnipiac St., Bldg. 40, Wallingford CT 06492
  
  
 ---------------------------------------------------------------
 Warning -- This program may not be used in any manner that
 competes with the business of Gaussian, Inc. or will provide
 assistance to any competitor of Gaussian, Inc.  The licensee
 of this program is prohibited from giving any competitor of
 Gaussian, Inc. access to this program.  By using this program,
 the user acknowledges that Gaussian, Inc. is engaged in the
 business of creating and licensing software in the field of
 computational chemistry and represents and warrants to the
 licensee that it is not a competitor of Gaussian, Inc. and that
 it will not use this program in any manner prohibited above.
 ---------------------------------------------------------------
  

 Cite this work as:
 Gaussian 09, Revision D.01,
 M. J. Frisch, G. W. Trucks, H. B. Schlegel, G. E. Scuseria, 
 M. A. Robb, J. R. Cheeseman, G. Scalmani, V. Barone, B. Mennucci, 
 G. A. Petersson, H. Nakatsuji, M. Caricato, X. Li, H. P. Hratchian, 
 A. F. Izmaylov, J. Bloino, G. Zheng, J. L. Sonnenberg, M. Hada, 
 M. Ehara, K. Toyota, R. Fukuda, J. Hasegawa, M. Ishida, T. Nakajima, 
 Y. Honda, O. Kitao, H. Nakai, T. Vreven, J. A. Montgomery, Jr., 
 J. E. Peralta, F. Ogliaro, M. Bearpark, J. J. Heyd, E. Brothers, 
 K. N. Kudin, V. N. Staroverov, T. Keith, R. Kobayashi, J. Normand, 
 K. Raghavachari, A. Rendell, J. C. Burant, S. S. Iyengar, J. Tomasi, 
 M. Cossi, N. Rega, J. M. Millam, M. Klene, J. E. Knox, J. B. Cross, 
 V. Bakken, C. Adamo, J. Jaramillo, R. Gomperts, R. E. Stratmann, 
 O. Yazyev, A. J. Austin, R. Cammi, C. Pomelli, J. W. Ochterski, 
 R. L. Martin, K. Morokuma, V. G. Zakrzewski, G. A. Voth, 
 P. Salvador, J. J. Dannenberg, S. Dapprich, A. D. Daniels, 
 O. Farkas, J. B. Foresman, J. V. Ortiz, J. Cioslowski, 
 and D. J. Fox, Gaussian, Inc., Wallingford CT, 2013.
 
 ******************************************
 Gaussian 09:  ES64L-G09RevD.01 24-Apr-2013
                19-May-2017 
 ******************************************
 %chk=BiFClBrIAt.chk
 %nprocs=8
 Will use up to    8 processors via shared memory.
 %mem=2000mw
 ----------------------------------------------------------------------
 # EPT(OVGF+P3,ReadOrbitals)/GEN gfinput geom=check guess=check scf=xqc
  pop(all,thresh=1) pseudo=read
 ----------------------------------------------------------------------
 1/29=2,38=1/1;
 2/12=2,40=1/2;
 3/5=7,11=9,14=-4,16=1,17=8,24=10,25=1,30=1,116=-2/1,2,3;
 4/5=1/1;
 5/5=2,8=3,13=1,38=6/2,8;
 8/6=4,9=120000,10=1/1,4;
 9/11=30100/8;
 6/7=2,8=2,9=2,10=2,87=-1,88=1/1;
 99/5=1,9=1/99;
 ----------------------------------------------
 BEB step 5: cation EPT for VIE2 for BiFClBrIAt
 ----------------------------------------------
 Structure from the checkpoint file:  "BiFClBrIAt.chk"
 Charge =  1 Multiplicity = 2
 Redundant internal coordinates found in file.
 Bi,0,-0.9365127913,0.6634957207,-0.0229682709
 F,0,-0.9148015666,0.6506383511,2.0117615586
 Cl,0,-0.9482875525,0.673187048,-2.5888735473
 Br,0,-2.2655976762,2.8869666536,0.0529192917
 I,0,-2.4412175827,-1.7333450332,0.0647936077
 At,0,1.9930976294,0.7281258298,0.0723673602
 Recover connectivity data from disk.
                          Input orientation:                          
 ---------------------------------------------------------------------
 Center     Atomic      Atomic             Coordinates (Angstroms)
 Number     Number       Type             X           Y           Z
 ---------------------------------------------------------------------
      1         83           0       -0.936513    0.663496   -0.022968
      2          9           0       -0.914802    0.650638    2.011762
      3         17           0       -0.948288    0.673187   -2.588874
      4         35           0       -2.265598    2.886967    0.052919
      5         53           0       -2.441218   -1.733345    0.064794
      6         85           0        1.993098    0.728126    0.072367
 ---------------------------------------------------------------------
                    Distance matrix (angstroms):
                    1          2          3          4          5
     1  Bi   0.000000
     2  F    2.034886   0.000000
     3  Cl   2.565951   4.600812   0.000000
     4  Br   2.591534   3.265406   3.689877   0.000000
     5  I    2.831375   3.435696   3.881003   4.623663   0.000000
     6  At   2.931874   3.496160   3.966985   4.774668   5.071691
                    6
     6  At   0.000000
 Stoichiometry    AtBiBrClFI(1+,2)
 Framework group  C1[X(AtBiBrClFI)]
 Deg. of freedom    12
 Full point group                 C1      NOp   1
 Largest Abelian subgroup         C1      NOp   1
 Largest concise Abelian subgroup C1      NOp   1
                         Standard orientation:                         
 ---------------------------------------------------------------------
 Center     Atomic      Atomic             Coordinates (Angstroms)
 Number     Number       Type             X           Y           Z
 ---------------------------------------------------------------------
      1         83           0        0.374064    0.267985   -0.054105
      2          9           0        0.313649    0.165948   -2.085534
      3         17           0        0.437083    0.386067    2.508352
      4         35           0        1.029333    2.767885   -0.246893
      5         53           0        2.484600   -1.618625   -0.109103
      6         85           0       -2.458953   -0.486921   -0.058326
 ---------------------------------------------------------------------
 Rotational constants (GHZ):      0.3835675      0.2029668      0.1585664
 General basis read from cards:  (5D, 7F)
 ======================================================================================================
                                       Pseudopotential Parameters
 ======================================================================================================
  Center     Atomic      Valence      Angular      Power
  Number     Number     Electrons     Momentum     of R      Exponent        Coefficient   SO-Coeffient
 ======================================================================================================
    1         83            5
                                      H and up 
                                                     2        1.0000000        0.00000000    0.00000000
                                      S - H
                                                     2        0.1611520       -0.16198800    0.00000000
                                                     2        1.5098350       14.03169000    0.00000000
                                                     2       10.0000000      122.04740100    0.00000000
                                      P - H
                                                     2        0.7604900       -6.18852600    0.00000000
                                                     2        1.4264150       51.04586800    0.00000000
                                      D - H
                                                     2        0.7802260       20.53580400    0.00000000
                                                     2        0.2600750       -0.13619600    0.00000000
                                      F - H
                                                     2        0.9736080       -6.41422600    0.00000000
                                      G - H
                                                     2        1.0881950       -6.65606400    0.00000000
    2          9
                                   No pseudopotential on this center.
    3         17
                                   No pseudopotential on this center.
    4         35
                                   No pseudopotential on this center.
    5         53            7
                                      G and up 
                                                     2        1.0000000        0.00000000    0.00000000
                                      S - G
                                                     2        3.5112000       83.11386300    0.00000000
                                                     2        1.7556000        5.20187600    0.00000000
                                      P - G
                                                     2        2.9688000       82.81110900    0.00000000
                                                     2        1.4844000        3.37968200    0.00000000
                                      D - G
                                                     2        1.9066000       10.30427700    0.00000000
                                                     2        0.9533000        7.58803200    0.00000000
                                      F - G
                                                     2        2.3075000      -21.47793600    0.00000000
    6         85            7
                                      H and up 
                                                     2        1.0000000        0.00000000    0.00000000
                                      S - H
                                                     2        0.9223860       -5.52846100    0.00000000
                                                     2        1.7819150       39.56886900    0.00000000
                                                     2       10.0000000      170.71138600    0.00000000
                                      P - H
                                                     2        0.7242910       -2.29538700    0.00000000
                                                     2        1.3638600       25.49292000    0.00000000
                                      D - H
                                                     2        0.6359720        4.86510700    0.00000000
                                                     2        1.2719430       14.57941300    0.00000000
                                      F - H
                                                     2        1.1541080       -6.85786700    0.00000000
                                      G - H
                                                     2        1.3451150       -7.61303900    0.00000000
 ======================================================================================================
 AO basis set in the form of general basis input (Overlap normalization):
      1 0
 S   3 1.00       0.000000000000
      0.1425388000D+01  0.1551577849D+00
      0.9849140000D+00 -0.9337229251D+00
      0.2525140000D+00  0.1433392723D+01
 S   1 1.00       0.000000000000
      0.1006190000D+00  0.1000000000D+01
 P   3 1.00       0.000000000000
      0.1517283000D+01  0.5994662445D+00
      0.1253307000D+01 -0.8875967497D+00
      0.2079490000D+00  0.1121281412D+01
 P   1 1.00       0.000000000000
      0.6943300000D-01  0.1000000000D+01
 D   1 1.00       0.000000000000
      0.1700000000D+00  0.1000000000D+01
 ****
      2 0
 S   6 1.00       0.000000000000
      0.1142710000D+05  0.1800930156D-02
      0.1722350000D+04  0.1374190119D-01
      0.3957460000D+03  0.6813340591D-01
      0.1151390000D+03  0.2333250202D+00
      0.3360260000D+02  0.5890860511D+00
      0.4919010000D+01  0.2995050260D+00
 SP   3 1.00       0.000000000000
      0.5544410000D+02  0.1145360155D+00  0.3546088738D-01
      0.1263230000D+02  0.9205121249D+00  0.2374509155D+00
      0.3717560000D+01 -0.3378040458D-02  0.8204577080D+00
 SP   1 1.00       0.000000000000
      0.1165450000D+01  0.1000000000D+01  0.1000000000D+01
 SP   1 1.00       0.000000000000
      0.3218920000D+00  0.1000000000D+01  0.1000000000D+01
 SP   1 1.00       0.000000000000
      0.1076000000D+00  0.1000000000D+01  0.1000000000D+01
 D   1 1.00       0.000000000000
      0.1750000000D+01  0.1000000000D+01
 ****
      3 0
 S   6 1.00       0.000000000000
      0.1058190000D+06  0.7380002465D-03
      0.1587200000D+05  0.5718001910D-02
      0.3619650000D+04  0.2949500985D-01
      0.1030800000D+04  0.1172860392D+00
      0.3399080000D+03  0.3629491212D+00
      0.1245380000D+03  0.5841491951D+00
 S   3 1.00       0.000000000000
      0.1245380000D+03  0.1341769734D+00
      0.4951350000D+02  0.6242498762D+00
      0.2080560000D+02  0.2917559421D+00
 S   1 1.00       0.000000000000
      0.6583460000D+01  0.1000000000D+01
 S   1 1.00       0.000000000000
      0.2564680000D+01  0.1000000000D+01
 S   1 1.00       0.000000000000
      0.5597630000D+00  0.1000000000D+01
 S   1 1.00       0.000000000000
      0.1832730000D+00  0.1000000000D+01
 SP   1 1.00       0.000000000000
      0.4830000000D-01  0.1000000000D+01  0.1000000000D+01
 P   5 1.00       0.000000000000
      0.5897760000D+03  0.3665569355D-02
      0.1398490000D+03  0.2836791942D-01
      0.4514130000D+02  0.1247566028D+00
      0.1687330000D+02  0.3396546305D+00
      0.2771520000D+01  0.7475859630D+00
 P   2 1.00       0.000000000000
      0.6741100000D+01 -0.1572243813D+01
      0.2771520000D+01  0.9923888817D+00
 P   1 1.00       0.000000000000
      0.1023870000D+01  0.1000000000D+01
 P   1 1.00       0.000000000000
      0.3813680000D+00  0.1000000000D+01
 P   1 1.00       0.000000000000
      0.1094370000D+00  0.1000000000D+01
 D   1 1.00       0.000000000000
      0.7500000000D+00  0.1000000000D+01
 ****
      4 0
 S   6 1.00       0.000000000000
      0.4397000000D+06  0.8129831575D-03
      0.6603000000D+05  0.6284869797D-02
      0.1514000000D+05  0.3191933873D-01
      0.4317000000D+04  0.1287973317D+00
      0.1414000000D+04  0.3945918253D+00
      0.5239000000D+03  0.5412887862D+00
 S   3 1.00       0.000000000000
      0.5239000000D+03  0.1831076475D+00
      0.2077000000D+03  0.6176257953D+00
      0.8654000000D+02  0.2538106004D+00
 S   1 1.00       0.000000000000
      0.3052000000D+02  0.1000000000D+01
 S   1 1.00       0.000000000000
      0.1298000000D+02  0.1000000000D+01
 S   1 1.00       0.000000000000
      0.4412000000D+01  0.1000000000D+01
 S   1 1.00       0.000000000000
      0.1862000000D+01  0.1000000000D+01
 S   1 1.00       0.000000000000
      0.3932000000D+00  0.1000000000D+01
 S   1 1.00       0.000000000000
      0.1400000000D+00  0.1000000000D+01
 SP   1 1.00       0.000000000000
      0.3500000000D-01  0.1000000000D+01  0.1000000000D+01
 P   3 1.00       0.000000000000
      0.2957000000D+04  0.2225989272D-01
      0.7003000000D+03  0.1801991316D+00
      0.2246000000D+03  0.8623958439D+00
 P   3 1.00       0.000000000000
      0.8259000000D+02  0.3439873898D+00
      0.3319000000D+02  0.5070814109D+00
      0.1420000000D+02  0.2589905057D+00
 P   3 1.00       0.000000000000
      0.1420000000D+02  0.7965393516D-01
      0.7438000000D+01  0.3734184481D+00
      0.3526000000D+01  0.6049298854D+00
 P   1 1.00       0.000000000000
      0.1595000000D+01  0.1000000000D+01
 P   1 1.00       0.000000000000
      0.8462000000D+00  0.1000000000D+01
 P   1 1.00       0.000000000000
      0.3186000000D+00  0.1000000000D+01
 P   1 1.00       0.000000000000
      0.1096000000D+00  0.1000000000D+01
 D   4 1.00       0.000000000000
      0.1348000000D+03  0.1830939254D-01
      0.3639000000D+02  0.1349955212D+00
      0.1216000000D+02  0.4260858635D+00
      0.4341000000D+01  0.6042799515D+00
 D   1 1.00       0.000000000000
      0.1535000000D+01  0.1000000000D+01
 D   1 1.00       0.000000000000
      0.4510000000D+00  0.1000000000D+01
 ****
      5 0
 S   3 1.00       0.000000000000
      0.2122765000D+01  0.2063429899D+01
      0.1770481000D+01 -0.2869526473D+01
      0.3130840000D+00  0.1404747074D+01
 S   1 1.00       0.000000000000
      0.1240710000D+00  0.1000000000D+01
 P   3 1.00       0.000000000000
      0.2432887000D+01  0.7732753148D+00
      0.2137249000D+01 -0.1020833156D+01
      0.3145460000D+00  0.1095666871D+01
 P   1 1.00       0.000000000000
      0.1049450000D+00  0.1000000000D+01
 P   1 1.00       0.000000000000
      0.3264100000D-01  0.1000000000D+01
 D   1 1.00       0.000000000000
      0.3020000000D+00  0.1000000000D+01
 ****
      6 0
 S   3 1.00       0.000000000000
      0.1962420000D+01  0.7836497076D+00
      0.1387359000D+01 -0.1548543810D+01
      0.2962310000D+00  0.1439673124D+01
 S   1 1.00       0.000000000000
      0.1041270000D+00  0.1000000000D+01
 P   3 1.00       0.000000000000
      0.2202138000D+01  0.1075076082D+00
      0.1338791000D+01 -0.3297162076D+00
      0.2620810000D+00  0.1103331080D+01
 P   1 1.00       0.000000000000
      0.9626800000D-01  0.1000000000D+01
 P   1 1.00       0.000000000000
      0.3784900000D-01  0.1000000000D+01
 D   1 1.00       0.000000000000
      0.2300000000D+00  0.1000000000D+01
 ****

 There are   153 symmetry adapted cartesian basis functions of A   symmetry.
 There are   145 symmetry adapted basis functions of A   symmetry.
   145 basis functions,   255 primitive gaussians,   153 cartesian basis functions
    40 alpha electrons       39 beta electrons
       nuclear repulsion energy       343.4458616690 Hartrees.
 NAtoms=    6 NActive=    6 NUniq=    6 SFac= 1.00D+00 NAtFMM=   60 NAOKFM=F Big=F
 Integral buffers will be    131072 words long.
 Raffenetti 2 integral format.
 Two-electron integral symmetry is turned on.
 One-electron integrals computed using PRISM.
   1 Symmetry operations used in ECPInt.
 ECPInt:  NShTT=    1540 NPrTT=    5351 LenC2=    1438 LenP2D=    4012.
 LDataN:  DoStor=T MaxTD1= 7 Len=  274
 NBasis=   145 RedAO= T EigKep=  4.06D-03  NBF=   145
 NBsUse=   145 1.00D-06 EigRej= -1.00D+00 NBFU=   145
 Initial guess from the checkpoint file:  "BiFClBrIAt.chk"
 B after Tr=     0.000000    0.000000    0.000000
         Rot=    1.000000    0.000000    0.000000    0.000000 Ang=   0.00 deg.
 Initial guess <Sx>= 0.0000 <Sy>= 0.0000 <Sz>= 0.5000 <S**2>= 0.7500 S= 0.5000
 Keep R1 and R2 ints in memory in canonical form, NReq=113957388.
 Requested convergence on RMS density matrix=1.00D-08 within  64 cycles.
 Requested convergence on MAX density matrix=1.00D-06.
 Requested convergence on             energy=1.00D-06.
 No special actions if energy rises.
 SCF Done:  E(UHF) =  -3158.27665450     A.U. after   44 cycles
            NFock= 44  Conv=0.70D-08     -V/T= 2.0061
 <Sx>= 0.0000 <Sy>= 0.0000 <Sz>= 0.5000 <S**2>= 0.7983 S= 0.5238
 <L.S>= 0.000000000000E+00
 Annihilation of the first spin contaminant:
 S**2 before annihilation     0.7983,   after     0.7509
 QCSCF skips out because SCF is already converged.
 ExpMin= 3.26D-02 ExpMax= 4.40D+05 ExpMxC= 1.51D+04 IAcc=3 IRadAn=         5 AccDes= 0.00D+00
 HarFok:  IExCor=  205 AccDes= 0.00D+00 IRadAn=         5 IDoV=-2 UseB2=F ITyADJ=14
 ICtDFT= 12500011 ScaDFX=  1.000000  1.000000  1.000000  1.000000
 Defaulting to unpruned grid for atomic number  83.
 Defaulting to unpruned grid for atomic number  83.
 Defaulting to unpruned grid for atomic number  83.
 Defaulting to unpruned grid for atomic number  83.
 Defaulting to unpruned grid for atomic number  83.
 Defaulting to unpruned grid for atomic number  83.
 Defaulting to unpruned grid for atomic number  83.
 Defaulting to unpruned grid for atomic number  83.
 Range of M.O.s used for correlation:    16   145
 NBasis=   145 NAE=    40 NBE=    39 NFC=    15 NFV=     0
 NROrb=    130 NOA=    25 NOB=    24 NVA=   105 NVB=   106
 Semi-Direct transformation.
 ModeAB=           4 MOrb=            25 LenV=    2096549521
 LASXX=     23693775 LTotXX=    23693775 LenRXX=    48813025
 LTotAB=    25119250 MaxLAS=    36224500 LenRXY=           0
 NonZer=    72506800 LenScr=   109527040 LnRSAI=    36224500
 LnScr1=    55109632 LExtra=           0 Total=    249674197
 MaxDsk=          -1 SrtSym=           T ITran=            4
 JobTyp=1 Pass  1:  I=   1 to  25.
 (rs|ai) integrals will be sorted in core.
 ModeAB=           4 MOrb=            24 LenV=    2096549521
 LASXX=     22905606 LTotXX=    22905606 LenRXX=    38732466
 LTotAB=    15826860 MaxLAS=    34775520 LenRXY=           0
 NonZer=    61638072 LenScr=    93219840 LnRSAI=    34775520
 LnScr1=    52921344 LExtra=           0 Total=    219649170
 MaxDsk=          -1 SrtSym=           T ITran=            4
 JobTyp=2 Pass  1:  I=   1 to  24.
 (rs|ai) integrals will be sorted in core.
 SymMOI:  orbitals are not symmetric.
 Spin components of T(2) and E(2):
     alpha-alpha T2 =       0.4491652618D-01 E2=     -0.1331583032D+00
     alpha-beta  T2 =       0.2308233818D+00 E2=     -0.6331384169D+00
     beta-beta   T2 =       0.4166288648D-01 E2=     -0.1268543459D+00
 ANorm=    0.1147781684D+01
 E2 =    -0.8931510659D+00 EUMP2 =    -0.31591698055700D+04
 (S**2,0)=  0.79826D+00           (S**2,1)=  0.78522D+00
 E(PUHF)=      -0.31582792976D+04        E(PMP2)=      -0.31591720957D+04
 GREENY: Electron Propagator Program
 FoFJK:  IHMeth= 0 ICntrl=     200 DoSepK=F KAlg= 0 I1Cent=   0 FoldK=F
 IRaf= 990000000 NMat=   1 IRICut=       1 DoRegI=T DoRafI=F ISym2E= 2.
 FoFCou: FMM=F IPFlag=           0 FMFlag=           0 FMFlg1=           0
         NFxFlg=           0 DoJE=F BraDBF=F KetDBF=F FulRan=T
         wScrn=  0.000000 ICntrl=     200 IOpCl=  1 I1Cent=           0 NGrid=           0
         NMat0=    1 NMatS0=      1 NMatT0=    0 NMatD0=    1 NMtDS0=    0 NMtDT0=    0
 Integrals replicated using symmetry in FoFCou.

 Summary of results for alpha spin-orbital  25  OVGF: 
 Koopmans theorem:            -0.54766D+00 au  -14.903 eV
 Converged second order pole: -0.50044D+00 au  -13.618 eV  0.867 (PS)
 Converged third  order pole: -0.50703D+00 au  -13.797 eV  0.872 (PS)
 Outer Valence Approximation: -0.50459D+00 au  -13.731 eV  0.869 (PS)

 Summary of results for alpha spin-orbital  25    P3: 
 Koopmans theorem:            -0.54766D+00 au  -14.903 eV
 Converged second order pole: -0.50044D+00 au  -13.618 eV  0.867 (PS)
 Converged 3rd order P3 pole: -0.50388D+00 au  -13.711 eV  0.860 (PS)

 Summary of results for beta  spin-orbital  24  OVGF: 
 Koopmans theorem:            -0.54795D+00 au  -14.910 eV
 Converged second order pole: -0.50084D+00 au  -13.628 eV  0.865 (PS)
 Converged third  order pole: -0.50808D+00 au  -13.826 eV  0.871 (PS)
 Outer Valence Approximation: -0.50555D+00 au  -13.757 eV  0.867 (PS)

 Summary of results for beta  spin-orbital  24    P3: 
 Koopmans theorem:            -0.54795D+00 au  -14.910 eV
 Converged second order pole: -0.50084D+00 au  -13.628 eV  0.865 (PS)
 Converged 3rd order P3 pole: -0.50459D+00 au  -13.731 eV  0.859 (PS)

 **********************************************************************

            Population analysis using the SCF density.

 **********************************************************************

 Orbital symmetries:
 Alpha Orbitals:
       Occupied  (A) (A) (A) (A) (A) (A) (A) (A) (A) (A) (A) (A)
                 (A) (A) (A) (A) (A) (A) (A) (A) (A) (A) (A) (A)
                 (A) (A) (A) (A) (A) (A) (A) (A) (A) (A) (A) (A)
                 (A) (A) (A) (A)
       Virtual   (A) (A) (A) (A) (A) (A) (A) (A) (A) (A) (A) (A)
                 (A) (A) (A) (A) (A) (A) (A) (A) (A) (A) (A) (A)
                 (A) (A) (A) (A) (A) (A) (A) (A) (A) (A) (A) (A)
                 (A) (A) (A) (A) (A) (A) (A) (A) (A) (A) (A) (A)
                 (A) (A) (A) (A) (A) (A) (A) (A) (A) (A) (A) (A)
                 (A) (A) (A) (A) (A) (A) (A) (A) (A) (A) (A) (A)
                 (A) (A) (A) (A) (A) (A) (A) (A) (A) (A) (A) (A)
                 (A) (A) (A) (A) (A) (A) (A) (A) (A) (A) (A) (A)
                 (A) (A) (A) (A) (A) (A) (A) (A) (A)
 Beta  Orbitals:
       Occupied  (A) (A) (A) (A) (A) (A) (A) (A) (A) (A) (A) (A)
                 (A) (A) (A) (A) (A) (A) (A) (A) (A) (A) (A) (A)
                 (A) (A) (A) (A) (A) (A) (A) (A) (A) (A) (A) (A)
                 (A) (A) (A)
       Virtual   (A) (A) (A) (A) (A) (A) (A) (A) (A) (A) (A) (A)
                 (A) (A) (A) (A) (A) (A) (A) (A) (A) (A) (A) (A)
                 (A) (A) (A) (A) (A) (A) (A) (A) (A) (A) (A) (A)
                 (A) (A) (A) (A) (A) (A) (A) (A) (A) (A) (A) (A)
                 (A) (A) (A) (A) (A) (A) (A) (A) (A) (A) (A) (A)
                 (A) (A) (A) (A) (A) (A) (A) (A) (A) (A) (A) (A)
                 (A) (A) (A) (A) (A) (A) (A) (A) (A) (A) (A) (A)
                 (A) (A) (A) (A) (A) (A) (A) (A) (A) (A) (A) (A)
                 (A) (A) (A) (A) (A) (A) (A) (A) (A) (A)
 The electronic state is 2-A.
 Alpha  occ. eigenvalues -- -490.20489-104.98033 -65.33853 -58.69888 -58.69663
 Alpha  occ. eigenvalues --  -58.69650 -26.39789 -10.70508 -10.01839  -8.17209
 Alpha  occ. eigenvalues --   -8.17035  -8.16999  -7.63320  -7.62275  -7.62203
 Alpha  occ. eigenvalues --   -3.37246  -3.36848  -3.36754  -3.35583  -3.35582
 Alpha  occ. eigenvalues --   -1.67417  -1.26952  -1.22382  -1.17600  -1.07662
 Alpha  occ. eigenvalues --   -0.95750  -0.77304  -0.76807  -0.75509  -0.68913
 Alpha  occ. eigenvalues --   -0.67284  -0.65449  -0.62259  -0.60808  -0.60078
 Alpha  occ. eigenvalues --   -0.59506  -0.58343  -0.57164  -0.55188  -0.54766
 Alpha virt. eigenvalues --   -0.30180  -0.13908  -0.12004  -0.05101  -0.04479
 Alpha virt. eigenvalues --   -0.03552  -0.03163  -0.02703  -0.01362  -0.00815
 Alpha virt. eigenvalues --    0.00339   0.01214   0.01671   0.01844   0.03571
 Alpha virt. eigenvalues --    0.04207   0.04911   0.09351   0.16406   0.19600
 Alpha virt. eigenvalues --    0.22090   0.26492   0.27253   0.31345   0.34566
 Alpha virt. eigenvalues --    0.35037   0.36549   0.37926   0.38053   0.41234
 Alpha virt. eigenvalues --    0.41967   0.43316   0.44296   0.45484   0.46354
 Alpha virt. eigenvalues --    0.47698   0.49058   0.50050   0.52440   0.52988
 Alpha virt. eigenvalues --    0.53608   0.55273   0.59361   0.60699   0.64129
 Alpha virt. eigenvalues --    0.67944   0.68402   0.70060   0.71917   0.73650
 Alpha virt. eigenvalues --    0.80502   0.82212   0.85353   0.86747   0.92144
 Alpha virt. eigenvalues --    0.97500   1.01122   1.02248   1.02340   1.05060
 Alpha virt. eigenvalues --    1.07304   1.08321   1.12812   1.33430   1.46774
 Alpha virt. eigenvalues --    1.47623   1.57837   2.04891   2.13168   2.14813
 Alpha virt. eigenvalues --    2.17065   2.49017   2.49414   2.52644   4.11460
 Alpha virt. eigenvalues --    4.11505   4.12125   4.12404   4.20695   4.51336
 Alpha virt. eigenvalues --    4.52443   4.53723   4.55931   4.64873   6.81999
 Alpha virt. eigenvalues --    6.82552   6.88437   6.96411   8.02822   8.04075
 Alpha virt. eigenvalues --    8.05510  10.18622  10.26752  11.82893  14.02950
 Alpha virt. eigenvalues --   26.56652  26.57229  26.66798  49.24745  68.64071
 Alpha virt. eigenvalues --  219.05077 293.71588 293.71762 293.763131028.17300
  Beta  occ. eigenvalues -- -490.20480-104.98063 -65.33849 -58.69858 -58.69665
  Beta  occ. eigenvalues --  -58.69646 -26.39791 -10.70537 -10.01823  -8.17371
  Beta  occ. eigenvalues --   -8.17021  -8.17016  -7.63245  -7.62285  -7.62197
  Beta  occ. eigenvalues --   -3.37221  -3.36831  -3.36733  -3.35586  -3.35584
  Beta  occ. eigenvalues --   -1.67428  -1.23154  -1.17828  -1.16673  -1.08169
  Beta  occ. eigenvalues --   -0.95686  -0.77009  -0.76755  -0.75678  -0.66388
  Beta  occ. eigenvalues --   -0.65159  -0.60827  -0.60404  -0.59668  -0.59264
  Beta  occ. eigenvalues --   -0.58467  -0.57724  -0.55588  -0.54795
  Beta virt. eigenvalues --   -0.29986  -0.28774  -0.13596  -0.12050  -0.04768
  Beta virt. eigenvalues --   -0.04002  -0.03453  -0.02684  -0.02178  -0.01400
  Beta virt. eigenvalues --   -0.00788   0.00492   0.01285   0.01707   0.01878
  Beta virt. eigenvalues --    0.03833   0.04420   0.04962   0.09542   0.17930
  Beta virt. eigenvalues --    0.19780   0.22274   0.26789   0.27694   0.34471
  Beta virt. eigenvalues --    0.35544   0.36613   0.37943   0.40762   0.41412
  Beta virt. eigenvalues --    0.41817   0.43339   0.44195   0.45117   0.47097
  Beta virt. eigenvalues --    0.47803   0.48333   0.49499   0.50125   0.52689
  Beta virt. eigenvalues --    0.53820   0.54536   0.55527   0.59949   0.61363
  Beta virt. eigenvalues --    0.64728   0.67993   0.68505   0.70245   0.71923
  Beta virt. eigenvalues --    0.74023   0.80723   0.82293   0.85526   0.86725
  Beta virt. eigenvalues --    0.92149   0.97363   1.01136   1.02158   1.02264
  Beta virt. eigenvalues --    1.05097   1.07127   1.08311   1.12805   1.33377
  Beta virt. eigenvalues --    1.46793   1.47633   1.57823   2.04918   2.13147
  Beta virt. eigenvalues --    2.14874   2.17153   2.49034   2.49394   2.52431
  Beta virt. eigenvalues --    4.11426   4.11529   4.12100   4.12402   4.20673
  Beta virt. eigenvalues --    4.51328   4.52433   4.53768   4.55984   4.64937
  Beta virt. eigenvalues --    6.81988   6.82566   6.88416   6.96432   8.02804
  Beta virt. eigenvalues --    8.04093   8.05592  10.18669  10.27123  11.83241
  Beta virt. eigenvalues --   14.02926  26.56646  26.57221  26.66727  49.24755
  Beta virt. eigenvalues --   68.64071 219.05062 293.71582 293.71766 293.76349
  Beta virt. eigenvalues -- 1028.17304
          Condensed to atoms (all electrons):
               1          2          3          4          5          6
     1  Bi   3.332556  -0.091682   0.124351   0.231733   0.277052   0.138182
     2  F   -0.091682   9.624314  -0.003432  -0.025536  -0.037419  -0.016572
     3  Cl   0.124351  -0.003432  17.234853  -0.016208  -0.032231  -0.026501
     4  Br   0.231733  -0.025536  -0.016208  34.837887  -0.005319  -0.005250
     5  I    0.277052  -0.037419  -0.032231  -0.005319   6.633270  -0.002978
     6  At   0.138182  -0.016572  -0.026501  -0.005250  -0.002978   6.320739
          Atomic-Atomic Spin Densities.
               1          2          3          4          5          6
     1  Bi   0.005699  -0.010949   0.004415   0.003059  -0.006205  -0.035000
     2  F   -0.010949   0.006244  -0.000021  -0.000305  -0.000485   0.001041
     3  Cl   0.004415  -0.000021  -0.028305  -0.000539   0.001974  -0.002486
     4  Br   0.003059  -0.000305  -0.000539   0.018881   0.000178  -0.000389
     5  I   -0.006205  -0.000485   0.001974   0.000178  -0.075435  -0.000057
     6  At  -0.035000   0.001041  -0.002486  -0.000389  -0.000057   1.164456
 Mulliken charges and spin densities:
               1          2
     1  Bi   0.987807  -0.038981
     2  F   -0.449673  -0.004475
     3  Cl  -0.280833  -0.024963
     4  Br  -0.017307   0.020885
     5  I    0.167625  -0.080030
     6  At   0.592381   1.127565
 Sum of Mulliken charges =   1.00000   1.00000
 Mulliken charges and spin densities with hydrogens summed into heavy atoms:
               1          2
     1  Bi   0.987807  -0.038981
     2  F   -0.449673  -0.004475
     3  Cl  -0.280833  -0.024963
     4  Br  -0.017307   0.020885
     5  I    0.167625  -0.080030
     6  At   0.592381   1.127565
 Electronic spatial extent (au):  <R**2>=           2206.7670
 Charge=              1.0000 electrons
 Dipole moment (field-independent basis, Debye):
    X=             -5.0170    Y=             -2.4868    Z=              0.5619  Tot=              5.6276
 Quadrupole moment (field-independent basis, Debye-Ang):
   XX=            -56.4948   YY=            -82.3110   ZZ=           -105.4886
   XY=             -0.0306   XZ=              0.5577   YZ=             -0.2726
 Traceless Quadrupole moment (field-independent basis, Debye-Ang):
   XX=             24.9367   YY=             -0.8795   ZZ=            -24.0572
   XY=             -0.0306   XZ=              0.5577   YZ=             -0.2726
 Octapole moment (field-independent basis, Debye-Ang**2):
  XXX=           -126.9383  YYY=            -44.0020  ZZZ=            -30.0136  XYY=             -6.1195
  XXY=            -59.0348  XXZ=            -17.6553  XZZ=            -45.5495  YZZ=            -23.8247
  YYZ=            -17.9635  XYZ=             -0.6267
 Hexadecapole moment (field-independent basis, Debye-Ang**3):
 XXXX=          -1348.0396 YYYY=          -1177.6591 ZZZZ=           -829.8831 XXXY=            -51.8397
 XXXZ=            -10.7790 YYYX=             -2.2918 YYYZ=            -17.0753 ZZZX=             -0.6610
 ZZZY=             -4.6767 XXYY=           -413.0654 XXZZ=           -399.8303 YYZZ=           -355.6926
 XXYZ=              1.4032 YYXZ=             -9.4075 ZZXY=              4.5120
 N-N= 3.434458616690D+02 E-N=-8.214608162535D+03  KE= 3.138996866596D+03

 Atomic contributions to Alpha molecular orbitals:
 Alpha occ 1 OE=-490.205 is Br4-s=1.00
 Alpha occ 2 OE=-104.980 is Cl3-s=1.00
 Alpha occ 3 OE=-65.339 is Br4-s=1.00
 Alpha occ 4 OE=-58.699 is Br4-p=1.00
 Alpha occ 5 OE=-58.697 is Br4-p=1.00
 Alpha occ 6 OE=-58.696 is Br4-p=1.00
 Alpha occ 7 OE=-26.398 is F2-s=1.00
 Alpha occ 8 OE=-10.705 is Cl3-s=1.00
 Alpha occ 9 OE=-10.018 is Br4-s=1.00
 Alpha occ 10 OE=-8.172 is Cl3-p=1.00
 Alpha occ 11 OE=-8.170 is Cl3-p=1.00
 Alpha occ 12 OE=-8.170 is Cl3-p=1.00
 Alpha occ 13 OE=-7.633 is Br4-p=1.00
 Alpha occ 14 OE=-7.623 is Br4-p=1.00
 Alpha occ 15 OE=-7.622 is Br4-p=1.00
 Alpha occ 16 OE=-3.372 is Br4-d=1.00
 Alpha occ 17 OE=-3.368 is Br4-d=1.00
 Alpha occ 18 OE=-3.368 is Br4-d=1.00
 Alpha occ 19 OE=-3.356 is Br4-d=1.00
 Alpha occ 20 OE=-3.356 is Br4-d=1.00
 Alpha occ 21 OE=-1.674 is F2-s=0.95 Bi1-p=0.02 Bi1-s=0.02
 Alpha occ 22 OE=-1.270 is At6-s=0.92 Bi1-s=0.04 Cl3-s=0.03
 Alpha occ 23 OE=-1.224 is Cl3-s=0.79 Bi1-s=0.07 At6-s=0.06 Br4-s=0.06
 Alpha occ 24 OE=-1.176 is Br4-s=0.82 Cl3-s=0.11 Bi1-s=0.04 Bi1-p=0.01
 Alpha occ 25 OE=-1.077 is I5-s=0.79 Bi1-s=0.12 Br4-s=0.03 Cl3-s=0.02 Bi1-p=0.02 I5-p=0.01
 Alpha occ 26 OE=-0.958 is Bi1-s=0.54 I5-s=0.17 F2-p=0.10 Br4-s=0.06 At6-p=0.03 Cl3-s=0.03 Br4-p=0.02 Cl3-p=0.02 At6-s=0.01 I5-p=0.01
 Alpha occ 27 OE=-0.773 is F2-p=0.83 Bi1-p=0.08 At6-p=0.05 Cl3-p=0.01
 Alpha occ 28 OE=-0.768 is F2-p=0.90 Bi1-p=0.05 Br4-p=0.02
 Alpha occ 29 OE=-0.755 is F2-p=0.61 Bi1-p=0.16 Cl3-p=0.10 At6-p=0.04 Bi1-s=0.03 Br4-p=0.02 Cl3-s=0.01 I5-p=0.01
 Alpha occ 30 OE=-0.689 is At6-p=0.65 Bi1-p=0.11 Cl3-p=0.09 Br4-p=0.07 F2-p=0.03 I5-p=0.02
 Alpha occ 31 OE=-0.673 is At6-p=0.74 F2-p=0.11 Bi1-p=0.07 Br4-p=0.04 Cl3-p=0.01
 Alpha occ 32 OE=-0.654 is At6-p=0.25 Bi1-p=0.21 Cl3-p=0.20 Br4-p=0.17 I5-p=0.10 F2-p=0.04 I5-s=0.01
 Alpha occ 33 OE=-0.623 is At6-p=0.70 Cl3-p=0.19 Br4-p=0.06 I5-p=0.03 Bi1-p=0.02
 Alpha occ 34 OE=-0.608 is Cl3-p=0.61 Br4-p=0.28 At6-p=0.04 F2-p=0.03 Bi1-p=0.03
 Alpha occ 35 OE=-0.601 is Cl3-p=0.41 Br4-p=0.33 At6-p=0.15 Bi1-p=0.04 F2-p=0.03 Bi1-d=0.01
 Alpha occ 36 OE=-0.595 is Br4-p=0.56 Cl3-p=0.27 I5-p=0.06 At6-p=0.04 Bi1-p=0.04
 Alpha occ 37 OE=-0.583 is Br4-p=0.56 Cl3-p=0.28 I5-p=0.08 Bi1-p=0.04 F2-p=0.02
 Alpha occ 38 OE=-0.572 is Br4-p=0.35 Cl3-p=0.32 I5-p=0.20 Bi1-p=0.04 F2-p=0.04 Bi1-d=0.02
 Alpha occ 39 OE=-0.552 is I5-p=0.87 Cl3-p=0.05 Bi1-p=0.02 At6-p=0.02 Br4-p=0.01 F2-p=0.01
 Alpha occ 40 OE=-0.548 is I5-p=0.93 Cl3-p=0.05 Bi1-p=0.01
 Alpha vir 41 OE=-0.302 is I5-p=0.28 Bi1-s=0.19 Cl3-p=0.16 Br4-p=0.14 At6-p=0.13 Bi1-p=0.06 F2-p=0.04
 Alpha vir 42 OE=-0.139 is Bi1-p=0.66 I5-p=0.15 At6-p=0.12 Br4-p=0.07 At6-s=-0.03 Br4-s=-0.01 At6-d=0.01 Cl3-p=0.01
 Alpha vir 43 OE=-0.120 is Bi1-p=0.68 Br4-p=0.19 I5-p=0.15 Br4-s=-0.07 Bi1-d=0.02 At6-d=0.02
 Alpha vir 44 OE=-0.051 is Bi1-p=0.68 F2-s=-0.25 At6-p=0.23 Br4-s=0.16 Cl3-p=0.13 Br4-p=0.06 Cl3-s=-0.04 I5-p=0.03 At6-s=-0.01
 Alpha vir 45 OE=-0.045 is Bi1-p=0.59 At6-p=0.27 F2-s=-0.13 Cl3-p=0.13 Br4-p=0.06 I5-p=0.03 Br4-s=0.02 At6-d=0.02 F2-p=0.01
 Alpha vir 46 OE=-0.036 is At6-p=0.74 I5-p=0.14 Br4-p=0.09 Bi1-p=-0.06 Cl3-p=0.04 Br4-s=0.04
 Alpha vir 47 OE=-0.032 is At6-p=0.89 Br4-s=0.08 Cl3-s=-0.04 Br4-p=0.04 I5-p=0.03 Cl3-p=0.02 F2-p=-0.02 Bi1-p=-0.02
 Alpha vir 48 OE=-0.027 is Br4-s=0.58 At6-p=0.33 Cl3-s=0.13 F2-s=-0.03 Bi1-s=-0.03 I5-p=0.02
 Alpha vir 49 OE=-0.014 is I5-p=0.62 Br4-p=0.23 At6-p=0.15 Cl3-p=0.05 Bi1-p=-0.02 F2-s=-0.02 Cl3-s=-0.01
 Alpha vir 50 OE=-0.008 is I5-p=0.45 Br4-p=0.35 At6-p=0.12 Br4-s=0.05 Cl3-p=0.01
 Alpha vir 51 OE=0.003 is I5-p=0.76 Br4-p=0.19 At6-p=0.07 Cl3-s=-0.04 Cl3-p=0.03 F2-p=-0.01
 Alpha vir 52 OE=0.012 is Br4-p=0.70 I5-p=0.33 F2-s=-0.07 At6-p=0.04 Cl3-p=0.04 Bi1-s=-0.02 Cl3-s=-0.02 Br4-s=-0.01 Bi1-p=0.01
 Alpha vir 53 OE=0.017 is Br4-p=0.74 I5-p=0.19 Cl3-p=0.08 F2-p=-0.01
 Alpha vir 54 OE=0.018 is Br4-p=0.46 I5-p=0.35 At6-p=0.14 Cl3-p=0.03 Cl3-s=0.01
 Alpha vir 55 OE=0.036 is Cl3-p=0.53 Br4-p=0.16 Cl3-s=0.13 Br4-s=0.12 I5-p=0.03 At6-d=0.02 Bi1-p=0.02
 Alpha vir 56 OE=0.042 is Cl3-p=0.88 Br4-p=0.07 I5-p=0.04 Cl3-s=0.03 At6-p=-0.01 Bi1-s=-0.01
 Alpha vir 57 OE=0.049 is Cl3-p=0.84 Br4-p=0.13 Bi1-p=-0.03 I5-p=0.02 Br4-s=0.01
 Alpha vir 58 OE=0.094 is Cl3-s=1.03 Cl3-p=0.42 Bi1-p=-0.28 Br4-p=-0.24 Br4-s=0.09 F2-s=-0.07 F2-p=0.03 At6-d=0.01 Bi1-s=-0.01
 Alpha vir 59 OE=0.164 is F2-p=0.71 At6-d=0.17 Bi1-d=0.07 I5-d=0.03 At6-p=-0.01 Cl3-p=0.01
 Alpha vir 60 OE=0.196 is F2-p=0.84 Bi1-d=0.07 At6-d=0.05 I5-d=0.04 F2-s=-0.03 Br4-d=0.02 Cl3-s=0.02 Bi1-p=0.02 I5-p=-0.02 Br4-s=-0.01 Cl3-p=0.01 Br4-p=-0.01
 Alpha vir 61 OE=0.221 is F2-p=1.01 Bi1-p=0.20 F2-s=-0.19 Bi1-d=0.04 Br4-p=-0.04 Bi1-s=-0.02 Cl3-s=-0.02 At6-d=0.02 I5-p=-0.01 Cl3-p=0.01
 Alpha vir 62 OE=0.265 is At6-d=0.32 Bi1-d=0.30 Bi1-p=0.16 I5-d=0.11 F2-s=0.05 Br4-d=0.04 At6-p=0.02 Cl3-p=0.01
 Alpha vir 63 OE=0.273 is At6-d=0.32 Bi1-p=0.17 Bi1-d=0.16 F2-s=0.12 I5-d=0.10 Br4-p=0.03 Br4-d=0.03 Cl3-p=0.03 I5-p=0.02
 Alpha vir 64 OE=0.313 is At6-d=0.52 Bi1-d=0.15 F2-p=0.14 F2-s=0.12 Bi1-p=-0.12 Cl3-s=0.06 Br4-s=0.03 I5-d=0.02 At6-p=0.02 Br4-p=0.02 Cl3-p=0.02 Bi1-s=-0.02
 Alpha vir 65 OE=0.346 is At6-d=0.82 F2-s=0.11 Bi1-p=-0.06 F2-p=0.03 Br4-p=0.03 I5-d=0.03 Cl3-p=0.02
 Alpha vir 66 OE=0.350 is F2-s=0.86 Bi1-p=-0.32 F2-p=0.21 At6-d=0.18 Bi1-s=-0.11 I5-d=0.08 Bi1-d=0.06 Br4-s=0.05 Cl3-p=-0.05 Cl3-s=-0.03 At6-p=0.03 Br4-p=0.03 Br4-d=0.02
 Alpha vir 67 OE=0.365 is Br4-p=0.82 Bi1-d=0.13 Br4-d=0.06 Br4-s=-0.06 Bi1-p=-0.05 F2-p=0.04 Cl3-p=0.03 I5-d=0.03 At6-d=0.01 Bi1-s=-0.01
 Alpha vir 68 OE=0.379 is Br4-p=0.31 Bi1-d=0.22 F2-p=0.13 At6-d=0.10 Cl3-p=0.08 I5-d=0.07 F2-s=0.06 Br4-s=-0.03 Cl3-s=0.03 Br4-d=0.02 Bi1-s=-0.01
 Alpha vir 69 OE=0.381 is At6-d=0.38 F2-s=0.26 Bi1-d=0.13 I5-d=0.07 At6-p=0.05 Br4-d=0.03 F2-p=0.03 Br4-s=0.02 Bi1-s=-0.01
 Alpha vir 70 OE=0.412 is Br4-p=0.68 At6-d=0.09 At6-p=0.08 F2-s=0.08 I5-d=0.04 Bi1-d=0.03 F2-p=0.02 Bi1-p=-0.02
 Alpha vir 71 OE=0.420 is At6-p=0.26 At6-d=0.25 I5-d=0.15 Br4-p=0.14 F2-s=0.12 Cl3-p=0.09 Bi1-p=-0.04 Bi1-d=0.03 Cl3-s=-0.02 F2-p=0.02 Br4-d=0.02
 Alpha vir 72 OE=0.433 is Br4-p=0.41 At6-p=0.23 At6-d=0.12 Cl3-p=0.09 I5-d=0.05 Bi1-d=0.03 F2-p=0.03 Bi1-p=0.02 Br4-d=0.02
 Alpha vir 73 OE=0.443 is Cl3-p=0.30 At6-p=0.17 Br4-p=0.16 At6-d=0.14 I5-d=0.11 Bi1-d=0.10 Br4-d=0.04 Bi1-p=-0.02 Cl3-s=-0.02 F2-p=0.01
 Alpha vir 74 OE=0.455 is Cl3-p=0.46 F2-s=0.23 Cl3-s=-0.16 Bi1-d=0.11 At6-p=0.10 At6-d=0.07 Br4-p=0.07 I5-d=0.06 Br4-d=0.04 Bi1-p=-0.03 Cl3-d=0.02 Br4-s=0.01
 Alpha vir 75 OE=0.464 is At6-d=0.30 Cl3-p=0.23 I5-d=0.14 Br4-p=0.13 Br4-d=0.07 Bi1-p=0.05 F2-p=0.04 Bi1-d=0.03 At6-p=0.02 I5-p=0.02 Cl3-s=-0.01 Bi1-s=-0.01
 Alpha vir 76 OE=0.477 is I5-d=0.29 Cl3-p=0.22 At6-p=0.18 Bi1-d=0.12 Bi1-p=0.08 Br4-p=0.05 At6-d=0.04 Cl3-d=0.01 F2-s=0.01 At6-s=-0.01 Br4-d=0.01
 Alpha vir 77 OE=0.491 is At6-p=0.65 I5-d=0.16 Cl3-p=0.08 Bi1-d=0.03 Br4-p=0.03 Bi1-p=0.01
 Alpha vir 78 OE=0.501 is I5-d=0.59 At6-p=0.21 Cl3-p=0.05 Bi1-d=0.03 Br4-p=0.03 Br4-d=0.02 I5-p=0.02 Bi1-p=0.02 At6-d=0.02
 Alpha vir 79 OE=0.524 is Cl3-p=0.53 At6-p=0.14 I5-d=0.13 Bi1-d=0.04 At6-d=0.04 Br4-p=0.03 Bi1-p=0.02 Br4-d=0.02 Br4-s=0.02 I5-p=0.01
 Alpha vir 80 OE=0.530 is At6-p=0.24 I5-d=0.23 Cl3-p=0.21 Bi1-p=0.09 Bi1-d=0.08 Br4-d=0.06 At6-d=0.04 I5-p=0.02 Br4-p=0.02 Cl3-d=0.01
 Alpha vir 81 OE=0.536 is I5-d=0.51 Cl3-p=0.29 F2-s=0.09 Bi1-d=0.04 At6-p=0.03 Br4-d=0.02 At6-d=0.02 Cl3-s=-0.01 F2-p=0.01 Bi1-s=-0.01 Cl3-d=0.01
 Alpha vir 82 OE=0.553 is I5-d=0.31 At6-p=0.18 Cl3-p=0.09 Bi1-p=0.09 At6-d=0.07 I5-p=0.06 F2-s=0.06 Br4-d=0.05 Br4-s=0.05 Br4-p=0.03 Bi1-d=0.02 At6-s=-0.02 Cl3-s=0.01 F2-p=0.01
 Alpha vir 83 OE=0.594 is Br4-d=0.26 I5-d=0.24 Bi1-d=0.15 Br4-s=0.09 At6-d=0.08 Cl3-p=0.05 Bi1-p=0.05 I5-p=0.02 At6-p=0.02 Cl3-d=0.02 Cl3-s=0.02
 Alpha vir 84 OE=0.607 is Br4-d=0.23 I5-d=0.23 Br4-s=0.15 Bi1-d=0.10 At6-d=0.08 At6-p=0.06 Cl3-p=0.06 Bi1-p=0.05 Cl3-d=0.02 F2-s=0.01 F2-p=0.01
 Alpha vir 85 OE=0.641 is Br4-d=0.37 I5-d=0.17 Bi1-d=0.15 At6-d=0.14 Bi1-p=0.06 I5-p=0.05 Br4-s=0.04 At6-p=0.03 At6-s=-0.01
 Alpha vir 86 OE=0.679 is Br4-d=0.34 Br4-s=0.16 I5-p=0.14 Bi1-p=0.14 I5-d=0.10 At6-p=0.05 At6-d=0.04 Bi1-d=0.04 I5-s=-0.02 Br4-p=-0.01
 Alpha vir 87 OE=0.684 is Br4-d=0.41 Br4-s=0.14 I5-d=0.12 Bi1-d=0.11 I5-p=0.08 Bi1-p=0.04 Br4-p=0.04 At6-d=0.03 Cl3-d=0.03 At6-p=0.02 F2-s=-0.02
 Alpha vir 88 OE=0.701 is Br4-d=0.59 Bi1-d=0.09 I5-d=0.08 At6-d=0.05 Br4-s=0.05 I5-p=0.04 F2-s=0.03 At6-p=0.03 Cl3-d=0.02 Br4-p=0.01
 Alpha vir 89 OE=0.719 is Bi1-p=0.28 Br4-d=0.22 Bi1-d=0.19 I5-p=0.10 I5-d=0.07 F2-s=0.06 At6-p=0.05 Br4-p=0.04 I5-s=-0.04 At6-d=0.03 F2-p=-0.01 Cl3-s=0.01
 Alpha vir 90 OE=0.737 is Br4-d=0.43 Bi1-d=0.16 Bi1-p=0.15 I5-p=0.10 I5-d=0.07 Cl3-d=0.05 At6-d=0.04 F2-s=-0.04 Cl3-s=0.02
 Alpha vir 91 OE=0.805 is Bi1-p=0.34 Br4-d=0.22 I5-p=0.19 Bi1-d=0.13 Cl3-d=0.07 At6-p=0.06 At6-d=0.03 F2-s=-0.03 Br4-p=0.03 F2-p=-0.02 Cl3-s=-0.02
 Alpha vir 92 OE=0.822 is I5-p=0.58 Bi1-d=0.09 Br4-d=0.07 Bi1-p=0.06 At6-d=0.05 Br4-s=0.05 Br4-p=0.04 I5-d=0.03 At6-p=0.02 Cl3-d=0.01 Cl3-p=0.01
 Alpha vir 93 OE=0.854 is Bi1-d=0.34 Bi1-p=0.23 Br4-d=0.19 I5-p=0.18 Br4-s=0.04 F2-p=-0.03 Cl3-s=0.03 Br4-p=-0.02 At6-p=0.02 At6-s=-0.02 At6-d=0.02 Cl3-d=0.02 Cl3-p=0.01 F2-s=-0.01
 Alpha vir 94 OE=0.867 is I5-p=0.33 Bi1-d=0.27 Cl3-d=0.16 I5-d=0.12 Br4-d=0.12 F2-s=-0.06 Cl3-p=0.04 F2-p=-0.04 At6-d=0.03 Bi1-p=0.03
 Alpha vir 95 OE=0.921 is Br4-d=0.25 Bi1-d=0.24 I5-p=0.22 I5-d=0.11 Cl3-d=0.05 Bi1-p=0.05 At6-d=0.03 Br4-s=0.02 Cl3-s=0.02
 Alpha vir 96 OE=0.975 is I5-p=0.42 Cl3-d=0.24 Bi1-p=0.19 I5-d=0.06 Bi1-d=0.03 Br4-d=0.02 At6-d=0.02 Cl3-s=0.01 F2-p=-0.01
 Alpha vir 97 OE=1.011 is Cl3-d=0.71 Bi1-p=0.08 Cl3-s=0.06 I5-p=0.04 Br4-d=0.04 I5-d=0.02 Bi1-d=0.02 Br4-p=0.01
 Alpha vir 98 OE=1.022 is Cl3-d=0.76 I5-p=0.13 Bi1-p=0.04 Bi1-d=0.03 Br4-d=0.02 I5-d=0.01 Cl3-s=0.01
 Alpha vir 99 OE=1.023 is Cl3-d=0.54 Cl3-s=0.23 Bi1-p=0.06 Bi1-d=0.05 I5-p=0.03 Br4-d=0.02 I5-d=0.02 F2-s=0.01
 Alpha vir 100 OE=1.051 is Cl3-d=0.27 Br4-d=0.25 Cl3-s=0.16 Bi1-d=0.10 Bi1-p=0.06 I5-d=0.04 Br4-s=0.04 I5-p=0.03 Br4-p=0.03 At6-d=0.02
 Alpha vir 101 OE=1.073 is Cl3-d=0.77 Bi1-p=0.08 I5-p=0.06 Bi1-d=0.05 I5-d=0.01
 Alpha vir 102 OE=1.083 is Cl3-d=0.38 Cl3-s=0.22 Bi1-p=0.20 Br4-d=0.08 I5-p=0.05 Bi1-d=0.05 F2-p=0.03 I5-d=0.02 F2-s=-0.02 At6-d=0.01 Cl3-p=-0.01
 Alpha vir 103 OE=1.128 is Bi1-p=0.27 Cl3-d=0.26 Bi1-d=0.16 Br4-d=0.12 F2-p=0.06 Br4-s=0.06 I5-p=0.05 Br4-p=-0.02 F2-s=0.02 I5-d=0.02
 Alpha vir 104 OE=1.334 is Cl3-d=0.42 Bi1-d=0.35 Cl3-s=0.20 Br4-d=0.05 F2-s=-0.02 Cl3-p=-0.02 Br4-s=0.01
 Alpha vir 105 OE=1.468 is F2-p=0.98
 Alpha vir 106 OE=1.476 is F2-p=0.96 Br4-d=0.01
 Alpha vir 107 OE=1.578 is F2-p=1.01 Bi1-d=-0.03
 Alpha vir 108 OE=2.049 is F2-s=0.73 Bi1-p=0.17 Br4-p=0.10 Bi1-d=-0.04 Bi1-s=0.01 Cl3-s=0.01 F2-p=0.01
 Alpha vir 109 OE=2.132 is Br4-p=1.00
 Alpha vir 110 OE=2.148 is Br4-p=0.97 F2-s=0.02
 Alpha vir 111 OE=2.171 is Br4-p=0.92 F2-s=0.05 Bi1-p=0.01
 Alpha vir 112 OE=2.490 is Cl3-p=1.00
 Alpha vir 113 OE=2.494 is Cl3-p=1.00
 Alpha vir 114 OE=2.526 is Cl3-p=0.99
 Alpha vir 115 OE=4.115 is F2-d=1.00
 Alpha vir 116 OE=4.115 is F2-d=1.00
 Alpha vir 117 OE=4.121 is F2-d=1.00
 Alpha vir 118 OE=4.124 is F2-d=0.99
 Alpha vir 119 OE=4.207 is F2-d=0.98
 Alpha vir 120 OE=4.513 is Br4-d=1.00
 Alpha vir 121 OE=4.524 is Br4-d=1.00
 Alpha vir 122 OE=4.537 is Br4-d=1.00
 Alpha vir 123 OE=4.559 is Br4-d=1.00
 Alpha vir 124 OE=4.649 is Br4-d=0.99
 Alpha vir 125 OE=6.820 is F2-p=1.00
 Alpha vir 126 OE=6.826 is F2-p=0.99
 Alpha vir 127 OE=6.884 is F2-p=0.99
 Alpha vir 128 OE=6.964 is Br4-s=0.99
 Alpha vir 129 OE=8.028 is Br4-p=1.00
 Alpha vir 130 OE=8.041 is Br4-p=1.00
 Alpha vir 131 OE=8.055 is Br4-p=1.00
 Alpha vir 132 OE=10.186 is Cl3-s=0.86 At6-s=0.11 Bi1-s=0.04 Bi1-p=-0.01
 Alpha vir 133 OE=10.268 is At6-s=0.54 Bi1-s=0.50 Cl3-s=0.12 Bi1-p=-0.06 F2-p=-0.05 F2-s=-0.04 Br4-p=-0.03 I5-s=0.02 Cl3-p=-0.02 Br4-s=-0.02 At6-p=0.02
 Alpha vir 134 OE=11.829 is Bi1-s=0.63 At6-s=0.48 Bi1-p=-0.06 F2-s=-0.03 F2-p=-0.03 At6-p=-0.02 I5-s=0.01 Cl3-s=0.01
 Alpha vir 135 OE=14.029 is I5-s=1.07 Bi1-p=-0.09 Bi1-s=0.03
 Alpha vir 136 OE=26.567 is Cl3-p=1.00
 Alpha vir 137 OE=26.572 is Cl3-p=1.00
 Alpha vir 138 OE=26.668 is Cl3-p=1.00
 Alpha vir 139 OE=49.247 is Br4-s=1.00
 Alpha vir 140 OE=68.641 is F2-s=1.00
 Alpha vir 141 OE=219.051 is Cl3-s=1.00
 Alpha vir 142 OE=293.716 is Br4-p=1.00
 Alpha vir 143 OE=293.718 is Br4-p=1.00
 Alpha vir 144 OE=293.763 is Br4-p=1.00
 Alpha vir 145 OE=1028.173 is Br4-s=1.00

 Atomic contributions to Beta  molecular orbitals:
 Beta  occ 1 OE=-490.205 is Br4-s=1.00
 Beta  occ 2 OE=-104.981 is Cl3-s=1.00
 Beta  occ 3 OE=-65.338 is Br4-s=1.00
 Beta  occ 4 OE=-58.699 is Br4-p=1.00
 Beta  occ 5 OE=-58.697 is Br4-p=1.00
 Beta  occ 6 OE=-58.696 is Br4-p=1.00
 Beta  occ 7 OE=-26.398 is F2-s=1.00
 Beta  occ 8 OE=-10.705 is Cl3-s=1.00
 Beta  occ 9 OE=-10.018 is Br4-s=1.00
 Beta  occ 10 OE=-8.174 is Cl3-p=1.00
 Beta  occ 11 OE=-8.170 is Cl3-p=1.00
 Beta  occ 12 OE=-8.170 is Cl3-p=1.00
 Beta  occ 13 OE=-7.632 is Br4-p=1.00
 Beta  occ 14 OE=-7.623 is Br4-p=1.00
 Beta  occ 15 OE=-7.622 is Br4-p=1.00
 Beta  occ 16 OE=-3.372 is Br4-d=1.00
 Beta  occ 17 OE=-3.368 is Br4-d=1.00
 Beta  occ 18 OE=-3.367 is Br4-d=1.00
 Beta  occ 19 OE=-3.356 is Br4-d=1.00
 Beta  occ 20 OE=-3.356 is Br4-d=1.00
 Beta  occ 21 OE=-1.674 is F2-s=0.95 Bi1-p=0.02 Bi1-s=0.02
 Beta  occ 22 OE=-1.232 is Cl3-s=0.77 Bi1-s=0.12 Br4-s=0.06 At6-s=0.04
 Beta  occ 23 OE=-1.178 is Br4-s=0.49 At6-s=0.25 Cl3-s=0.17 Bi1-s=0.07
 Beta  occ 24 OE=-1.167 is At6-s=0.65 Br4-s=0.33
 Beta  occ 25 OE=-1.082 is I5-s=0.82 Bi1-s=0.09 Br4-s=0.03 Bi1-p=0.02 Cl3-s=0.02 At6-s=0.01 I5-p=0.01
 Beta  occ 26 OE=-0.957 is Bi1-s=0.54 I5-s=0.14 F2-p=0.10 Br4-s=0.06 At6-s=0.04 Cl3-s=0.03 At6-p=0.02 Br4-p=0.02 Cl3-p=0.02 I5-p=0.01
 Beta  occ 27 OE=-0.770 is F2-p=0.86 Bi1-p=0.08 At6-p=0.03 Cl3-p=0.01
 Beta  occ 28 OE=-0.768 is F2-p=0.91 Bi1-p=0.05 Br4-p=0.01 I5-p=0.01
 Beta  occ 29 OE=-0.757 is F2-p=0.61 Bi1-p=0.16 Cl3-p=0.12 Bi1-s=0.03 Br4-p=0.02 Cl3-s=0.01
 Beta  occ 30 OE=-0.664 is At6-p=0.30 Bi1-p=0.24 Cl3-p=0.17 Br4-p=0.15 F2-p=0.08 I5-p=0.03
 Beta  occ 31 OE=-0.652 is Cl3-p=0.25 Bi1-p=0.24 Br4-p=0.18 I5-p=0.15 At6-p=0.10 F2-p=0.05 I5-s=0.01
 Beta  occ 32 OE=-0.608 is Cl3-p=0.42 Br4-p=0.34 At6-p=0.15 F2-p=0.04 Bi1-p=0.04
 Beta  occ 33 OE=-0.604 is Cl3-p=0.45 At6-p=0.32 Br4-p=0.15 I5-p=0.04 Bi1-p=0.02 F2-p=0.02
 Beta  occ 34 OE=-0.597 is Cl3-p=0.41 At6-p=0.35 Br4-p=0.14 Bi1-p=0.04 F2-p=0.04 Bi1-d=0.01
 Beta  occ 35 OE=-0.593 is Br4-p=0.39 At6-p=0.26 Cl3-p=0.23 I5-p=0.05 Bi1-p=0.03 F2-p=0.03 Bi1-d=0.01
 Beta  occ 36 OE=-0.585 is Br4-p=0.46 I5-p=0.22 Cl3-p=0.17 At6-p=0.05 Bi1-p=0.05 F2-p=0.02 Bi1-d=0.01
 Beta  occ 37 OE=-0.577 is Br4-p=0.56 Cl3-p=0.29 I5-p=0.08 F2-p=0.02 Bi1-d=0.02 Bi1-p=0.01
 Beta  occ 38 OE=-0.556 is I5-p=0.92 Br4-p=0.05 At6-p=0.01
 Beta  occ 39 OE=-0.548 is I5-p=0.89 Cl3-p=0.09 Bi1-p=0.01
 Beta  vir 40 OE=-0.300 is I5-p=0.23 At6-p=0.22 Bi1-s=0.20 Br4-p=0.16 Cl3-p=0.13 F2-p=0.04 Bi1-p=0.03
 Beta  vir 41 OE=-0.288 is At6-p=0.97 Bi1-p=0.02
 Beta  vir 42 OE=-0.136 is Bi1-p=0.60 I5-p=0.18 At6-p=0.16 Br4-p=0.04 At6-s=-0.02 I5-d=0.01
 Beta  vir 43 OE=-0.121 is Bi1-p=0.70 Br4-p=0.22 I5-p=0.08 Br4-s=-0.08 Bi1-d=0.02 At6-p=0.02 At6-d=0.02
 Beta  vir 44 OE=-0.048 is Bi1-p=0.49 At6-p=0.26 Br4-s=0.22 F2-s=-0.20 Cl3-p=0.11 Br4-p=0.07 Cl3-s=0.04 I5-p=0.03 At6-s=-0.02
 Beta  vir 45 OE=-0.040 is Bi1-p=0.79 At6-p=0.22 F2-s=-0.19 Cl3-p=0.12 Cl3-s=-0.06 Br4-p=0.05 I5-p=0.03 F2-p=0.01 At6-d=0.01
 Beta  vir 46 OE=-0.035 is At6-p=0.73 I5-p=0.15 Br4-p=0.09 Bi1-p=-0.06 Cl3-p=0.05 Br4-s=0.03
 Beta  vir 47 OE=-0.027 is Br4-s=0.62 At6-p=0.29 Cl3-s=0.09 I5-p=0.03 Bi1-s=-0.03 Bi1-p=-0.03 Br4-p=0.02 F2-s=-0.02
 Beta  vir 48 OE=-0.022 is At6-p=0.83 I5-p=0.10 Cl3-p=0.07 Cl3-s=-0.06 Br4-p=0.05 Br4-s=0.02 F2-s=-0.01
 Beta  vir 49 OE=-0.014 is I5-p=0.62 Br4-p=0.21 At6-p=0.18 Cl3-p=0.04 F2-s=-0.02 Bi1-p=-0.02 Cl3-s=-0.01
 Beta  vir 50 OE=-0.008 is I5-p=0.44 Br4-p=0.37 At6-p=0.13 Br4-s=0.05 Cl3-p=0.01
 Beta  vir 51 OE=0.005 is I5-p=0.74 At6-p=0.16 Br4-p=0.13 Cl3-s=-0.02 F2-p=-0.02
 Beta  vir 52 OE=0.013 is Br4-p=0.75 I5-p=0.31 F2-s=-0.07 At6-p=0.05 Cl3-s=-0.03 Cl3-p=0.03 Bi1-s=-0.02 Br4-s=-0.02 Bi1-p=0.01
 Beta  vir 53 OE=0.017 is Br4-p=0.76 I5-p=0.17 Cl3-p=0.07 F2-p=-0.02 At6-p=0.01
 Beta  vir 54 OE=0.019 is Br4-p=0.45 I5-p=0.35 At6-p=0.15 Cl3-p=0.03 Cl3-s=0.01
 Beta  vir 55 OE=0.038 is Cl3-p=0.50 Cl3-s=0.20 Br4-p=0.12 Br4-s=0.10 Bi1-p=0.04 I5-p=0.03 At6-p=0.02 F2-s=-0.01
 Beta  vir 56 OE=0.044 is Cl3-p=0.94 Br4-p=0.08 I5-p=0.04 Bi1-p=-0.02 Cl3-s=-0.02 At6-p=-0.02
 Beta  vir 57 OE=0.050 is Cl3-p=0.85 Br4-p=0.13 Bi1-p=-0.03 I5-p=0.02 Br4-s=0.02
 Beta  vir 58 OE=0.095 is Cl3-s=1.07 Cl3-p=0.40 Bi1-p=-0.30 Br4-p=-0.24 Br4-s=0.09 F2-s=-0.07 F2-p=0.03 Bi1-s=-0.01
 Beta  vir 59 OE=0.179 is F2-p=0.80 At6-d=0.10 Bi1-d=0.07 I5-d=0.04 Bi1-p=-0.03 At6-p=-0.01
 Beta  vir 60 OE=0.198 is F2-p=0.87 Bi1-d=0.07 F2-s=-0.04 I5-d=0.04 Bi1-p=0.04 At6-d=0.03 Br4-d=0.02 Cl3-s=0.02 I5-p=-0.02 Br4-s=-0.01 Cl3-p=0.01
 Beta  vir 61 OE=0.223 is F2-p=1.02 Bi1-p=0.18 F2-s=-0.18 Bi1-d=0.04 Br4-p=-0.04 Cl3-s=-0.02 Bi1-s=-0.02 At6-d=0.01 Cl3-p=0.01 Br4-d=0.01
 Beta  vir 62 OE=0.268 is Bi1-d=0.30 At6-d=0.29 Bi1-p=0.17 I5-d=0.12 F2-s=0.05 Br4-d=0.04 At6-p=0.02 Cl3-p=0.01
 Beta  vir 63 OE=0.277 is At6-d=0.28 Bi1-d=0.18 Bi1-p=0.18 I5-d=0.12 F2-s=0.11 Br4-d=0.04 Br4-p=0.03 Cl3-p=0.03 I5-p=0.02
 Beta  vir 64 OE=0.345 is F2-s=0.61 Bi1-p=-0.29 At6-d=0.23 F2-p=0.16 Bi1-d=0.15 Bi1-s=-0.07 Br4-s=0.07 Br4-p=0.06 I5-d=0.04 Cl3-s=0.03 Cl3-p=-0.03 I5-p=0.01 At6-p=0.01
 Beta  vir 65 OE=0.355 is F2-s=0.78 Bi1-p=-0.29 Bi1-d=0.16 F2-p=0.15 I5-d=0.10 At6-d=0.09 Bi1-s=-0.09 Br4-s=0.05 At6-p=0.04 Cl3-s=-0.02 Br4-p=0.02 Br4-d=0.02
 Beta  vir 66 OE=0.366 is Br4-p=0.80 Bi1-d=0.14 Bi1-p=-0.06 Br4-d=0.06 Br4-s=-0.05 F2-p=0.04 Cl3-p=0.04 I5-d=0.03 Bi1-s=-0.02 F2-s=0.02
 Beta  vir 67 OE=0.379 is Br4-p=0.37 Bi1-d=0.26 Cl3-p=0.11 F2-p=0.08 I5-d=0.07 Bi1-p=0.06 At6-d=0.03 Br4-d=0.03 Br4-s=-0.03 Cl3-s=0.01 Cl3-d=0.01
 Beta  vir 68 OE=0.408 is At6-d=0.71 Br4-p=0.07 Bi1-d=0.06 F2-p=0.05 I5-d=0.04 At6-p=0.03 Br4-d=0.01 Cl3-p=0.01
 Beta  vir 69 OE=0.414 is Br4-p=0.73 At6-d=0.11 At6-p=0.04 I5-d=0.04 Bi1-d=0.03 F2-s=0.02 F2-p=0.01 Cl3-p=0.01
 Beta  vir 70 OE=0.418 is At6-d=0.30 At6-p=0.21 Br4-p=0.11 I5-d=0.10 Bi1-d=0.10 Bi1-p=0.05 Cl3-p=0.04 Br4-d=0.03 Cl3-s=0.02 Cl3-d=0.01 F2-p=0.01
 Beta  vir 71 OE=0.433 is At6-d=0.45 Cl3-p=0.19 F2-s=0.18 Br4-p=0.11 I5-d=0.08 Bi1-p=-0.08 At6-p=0.06 Cl3-s=-0.05 Bi1-d=0.03 Br4-d=0.03
 Beta  vir 72 OE=0.442 is Br4-p=0.38 At6-d=0.22 I5-d=0.13 Bi1-d=0.08 At6-p=0.05 Br4-d=0.03 Bi1-p=0.03 F2-p=0.03 Cl3-p=0.03
 Beta  vir 73 OE=0.451 is Cl3-p=0.66 Cl3-s=-0.16 F2-s=0.15 I5-d=0.10 At6-d=0.08 At6-p=0.08 Bi1-p=-0.05 Br4-p=0.05 Bi1-d=0.05 Cl3-d=0.02 Br4-d=0.01
 Beta  vir 74 OE=0.471 is At6-d=0.34 Cl3-p=0.18 At6-p=0.14 I5-d=0.13 Br4-p=0.08 Br4-d=0.06 Bi1-d=0.02 Bi1-p=0.02 F2-p=0.01 I5-p=0.01
 Beta  vir 75 OE=0.478 is I5-d=0.29 At6-p=0.18 Bi1-d=0.12 At6-d=0.12 Cl3-p=0.10 Bi1-p=0.09 F2-p=0.05 Br4-p=0.02 I5-p=0.02 Br4-d=0.01 Cl3-d=0.01 At6-s=-0.01
 Beta  vir 76 OE=0.483 is Cl3-p=0.30 At6-d=0.28 At6-p=0.21 F2-s=0.10 Br4-p=0.04 I5-d=0.04 Br4-d=0.03 Bi1-p=0.02 Bi1-s=-0.02 Cl3-s=-0.01
 Beta  vir 77 OE=0.495 is I5-d=0.38 At6-p=0.35 Cl3-p=0.11 At6-d=0.04 Br4-p=0.04 Bi1-d=0.03 F2-s=0.01
 Beta  vir 78 OE=0.501 is At6-p=0.44 I5-d=0.41 Br4-d=0.03 At6-d=0.03 Bi1-p=0.02 Cl3-p=0.02 Br4-p=0.02 Bi1-d=0.02 I5-p=0.01
 Beta  vir 79 OE=0.527 is Cl3-p=0.56 I5-d=0.15 At6-p=0.09 Bi1-d=0.06 Br4-d=0.03 Br4-p=0.03 Bi1-p=0.03 At6-d=0.02 Br4-s=0.02 Cl3-d=0.01
 Beta  vir 80 OE=0.538 is I5-d=0.56 Cl3-p=0.09 Bi1-d=0.07 At6-d=0.06 Br4-d=0.06 F2-s=0.05 Bi1-p=0.04 F2-p=0.03 At6-p=0.02 Cl3-d=0.01
 Beta  vir 81 OE=0.545 is At6-p=0.39 Cl3-p=0.22 I5-d=0.14 Bi1-p=0.08 At6-d=0.05 I5-p=0.03 Bi1-d=0.03 F2-s=0.03 Br4-d=0.02 Cl3-d=0.01
 Beta  vir 82 OE=0.555 is I5-d=0.30 At6-p=0.22 Cl3-p=0.10 Br4-d=0.08 Bi1-p=0.07 I5-p=0.05 At6-d=0.05 Br4-s=0.05 F2-s=0.04 Br4-p=0.03 At6-s=-0.02 F2-p=0.02
 Beta  vir 83 OE=0.599 is Br4-d=0.27 Br4-s=0.19 I5-d=0.18 Cl3-p=0.09 At6-d=0.07 Bi1-p=0.07 Bi1-d=0.06 At6-p=0.02 I5-p=0.02 Cl3-s=0.02
 Beta  vir 84 OE=0.614 is I5-d=0.24 Br4-d=0.22 At6-d=0.15 Bi1-d=0.15 At6-p=0.08 Br4-s=0.05 Bi1-p=0.04 Cl3-d=0.03 Cl3-p=0.02
 Beta  vir 85 OE=0.647 is Br4-d=0.40 At6-d=0.18 I5-d=0.14 Bi1-d=0.13 Bi1-p=0.06 I5-p=0.04 At6-p=0.03 Br4-s=0.03 At6-s=-0.02
 Beta  vir 86 OE=0.680 is Br4-d=0.28 Br4-s=0.21 I5-p=0.16 Bi1-p=0.12 I5-d=0.11 At6-p=0.05 At6-d=0.05 Bi1-d=0.03 I5-s=-0.02 Br4-p=-0.01
 Beta  vir 87 OE=0.685 is Br4-d=0.49 Bi1-d=0.11 Br4-s=0.09 I5-d=0.09 I5-p=0.07 Bi1-p=0.06 At6-d=0.04 Br4-p=0.03 Cl3-d=0.03 At6-p=0.02 F2-s=-0.01
 Beta  vir 88 OE=0.702 is Br4-d=0.52 Bi1-d=0.10 I5-d=0.08 At6-d=0.08 Br4-s=0.06 I5-p=0.05 At6-p=0.04 F2-s=0.03 Cl3-d=0.02 Br4-p=0.02 Bi1-p=0.01
 Beta  vir 89 OE=0.719 is Bi1-p=0.26 Br4-d=0.24 Bi1-d=0.19 I5-p=0.10 I5-d=0.07 F2-s=0.06 At6-p=0.05 Br4-p=0.04 I5-s=-0.04 At6-d=0.03 Cl3-s=0.01
 Beta  vir 90 OE=0.740 is Br4-d=0.42 Bi1-d=0.16 Bi1-p=0.14 I5-p=0.10 At6-d=0.07 I5-d=0.06 Cl3-d=0.06 F2-s=-0.04 Cl3-s=0.02 At6-p=0.01
 Beta  vir 91 OE=0.807 is Bi1-p=0.33 I5-p=0.22 Br4-d=0.21 Bi1-d=0.13 Cl3-d=0.07 At6-p=0.06 At6-d=0.04 F2-s=-0.03 Br4-p=0.02 F2-p=-0.02 Cl3-s=-0.02
 Beta  vir 92 OE=0.823 is I5-p=0.57 Bi1-d=0.09 Bi1-p=0.06 At6-d=0.06 Br4-d=0.06 Br4-s=0.05 Br4-p=0.04 I5-d=0.03 At6-p=0.02 Cl3-d=0.01 Cl3-p=0.01
 Beta  vir 93 OE=0.855 is Bi1-d=0.32 Bi1-p=0.23 I5-p=0.20 Br4-d=0.18 Br4-s=0.04 Cl3-s=0.03 F2-p=-0.03 Br4-p=-0.02 At6-p=0.02 At6-s=-0.02 At6-d=0.02 Cl3-d=0.02 Cl3-p=0.01
 Beta  vir 94 OE=0.867 is Bi1-d=0.29 I5-p=0.28 Cl3-d=0.16 Br4-d=0.13 I5-d=0.11 F2-s=-0.06 Cl3-p=0.05 F2-p=-0.04 At6-d=0.03 Bi1-p=0.03
 Beta  vir 95 OE=0.921 is Br4-d=0.26 Bi1-d=0.24 I5-p=0.22 I5-d=0.10 Cl3-d=0.05 Bi1-p=0.05 At6-d=0.03 Br4-s=0.02 Cl3-s=0.02
 Beta  vir 96 OE=0.974 is I5-p=0.42 Cl3-d=0.23 Bi1-p=0.19 I5-d=0.06 Bi1-d=0.03 At6-d=0.02 Br4-d=0.02 Cl3-s=0.02 F2-p=-0.01
 Beta  vir 97 OE=1.011 is Cl3-d=0.68 Bi1-p=0.08 Cl3-s=0.07 I5-p=0.05 Br4-d=0.04 I5-d=0.02 Bi1-d=0.02 Br4-p=0.01
 Beta  vir 98 OE=1.022 is Cl3-d=0.71 I5-p=0.11 Cl3-s=0.05 Bi1-p=0.04 Bi1-d=0.04 Br4-d=0.02 I5-d=0.02
 Beta  vir 99 OE=1.023 is Cl3-d=0.65 Cl3-s=0.19 Bi1-d=0.05 Bi1-p=0.03 I5-p=0.02 Br4-d=0.01
 Beta  vir 100 OE=1.051 is Cl3-d=0.27 Br4-d=0.25 Cl3-s=0.13 Bi1-d=0.09 Bi1-p=0.07 I5-d=0.04 Br4-s=0.04 I5-p=0.03 Br4-p=0.03 At6-d=0.02
 Beta  vir 101 OE=1.071 is Cl3-d=0.77 Bi1-p=0.08 I5-p=0.06 Bi1-d=0.05 I5-d=0.01
 Beta  vir 102 OE=1.083 is Cl3-d=0.37 Cl3-s=0.23 Bi1-p=0.20 Br4-d=0.08 I5-p=0.05 Bi1-d=0.05 F2-p=0.03 F2-s=-0.03 I5-d=0.02 At6-d=0.02 Cl3-p=-0.01
 Beta  vir 103 OE=1.128 is Bi1-p=0.29 Cl3-d=0.25 Bi1-d=0.16 Br4-d=0.12 F2-p=0.06 Br4-s=0.06 I5-p=0.05 Br4-p=-0.02 F2-s=0.02 I5-d=0.02 At6-d=0.01
 Beta  vir 104 OE=1.334 is Cl3-d=0.42 Bi1-d=0.35 Cl3-s=0.20 Br4-d=0.05 F2-s=-0.02 Cl3-p=-0.02 Br4-s=0.01
 Beta  vir 105 OE=1.468 is F2-p=0.98
 Beta  vir 106 OE=1.476 is F2-p=0.96 Br4-d=0.01
 Beta  vir 107 OE=1.578 is F2-p=1.01 Bi1-d=-0.03
 Beta  vir 108 OE=2.049 is F2-s=0.73 Bi1-p=0.17 Br4-p=0.10 Bi1-d=-0.04 Bi1-s=0.01 Cl3-s=0.01 F2-p=0.01
 Beta  vir 109 OE=2.131 is Br4-p=1.00
 Beta  vir 110 OE=2.149 is Br4-p=0.97 F2-s=0.03
 Beta  vir 111 OE=2.172 is Br4-p=0.92 F2-s=0.05 Bi1-p=0.01
 Beta  vir 112 OE=2.490 is Cl3-p=1.00
 Beta  vir 113 OE=2.494 is Cl3-p=1.00
 Beta  vir 114 OE=2.524 is Cl3-p=0.98
 Beta  vir 115 OE=4.114 is F2-d=1.00
 Beta  vir 116 OE=4.115 is F2-d=1.00
 Beta  vir 117 OE=4.121 is F2-d=1.00
 Beta  vir 118 OE=4.124 is F2-d=0.99
 Beta  vir 119 OE=4.207 is F2-d=0.98
 Beta  vir 120 OE=4.513 is Br4-d=1.00
 Beta  vir 121 OE=4.524 is Br4-d=1.00
 Beta  vir 122 OE=4.538 is Br4-d=1.00
 Beta  vir 123 OE=4.560 is Br4-d=1.00
 Beta  vir 124 OE=4.649 is Br4-d=0.99
 Beta  vir 125 OE=6.820 is F2-p=1.00
 Beta  vir 126 OE=6.826 is F2-p=0.99
 Beta  vir 127 OE=6.884 is F2-p=0.99
 Beta  vir 128 OE=6.964 is Br4-s=0.99
 Beta  vir 129 OE=8.028 is Br4-p=1.00
 Beta  vir 130 OE=8.041 is Br4-p=1.00
 Beta  vir 131 OE=8.056 is Br4-p=1.00
 Beta  vir 132 OE=10.187 is Cl3-s=0.88 At6-s=0.10 Bi1-s=0.03 Bi1-p=-0.01
 Beta  vir 133 OE=10.271 is At6-s=0.55 Bi1-s=0.51 Cl3-s=0.11 Bi1-p=-0.06 F2-p=-0.05 F2-s=-0.04 Br4-p=-0.03 I5-s=0.02 Cl3-p=-0.02 Br4-s=-0.02 At6-p=0.02
 Beta  vir 134 OE=11.832 is Bi1-s=0.63 At6-s=0.49 Bi1-p=-0.06 F2-s=-0.03 F2-p=-0.03 At6-p=-0.02 I5-s=0.01 Cl3-s=0.01
 Beta  vir 135 OE=14.029 is I5-s=1.07 Bi1-p=-0.09 Bi1-s=0.03
 Beta  vir 136 OE=26.566 is Cl3-p=1.00
 Beta  vir 137 OE=26.572 is Cl3-p=1.00
 Beta  vir 138 OE=26.667 is Cl3-p=1.00
 Beta  vir 139 OE=49.248 is Br4-s=1.00
 Beta  vir 140 OE=68.641 is F2-s=1.00
 Beta  vir 141 OE=219.051 is Cl3-s=1.00
 Beta  vir 142 OE=293.716 is Br4-p=1.00
 Beta  vir 143 OE=293.718 is Br4-p=1.00
 Beta  vir 144 OE=293.763 is Br4-p=1.00
 Beta  vir 145 OE=1028.173 is Br4-s=1.00
 
 1\1\GINC-GAMBA\SP\UOVGF-FC\Gen\At1Bi1Br1Cl1F1I1(1+,2)\IRIKURA\19-May-2
 017\0\\# EPT(OVGF+P3,ReadOrbitals)/GEN gfinput geom=check guess=check 
 scf=xqc pop(all,thresh=1) pseudo=read\\BEB step 5: cation EPT for VIE2
  for BiFClBrIAt\\1,2\Bi,0,-0.9365127913,0.6634957207,-0.0229682709\F,0
 ,-0.9148015666,0.6506383511,2.0117615586\Cl,0,-0.9482875525,0.67318704
 8,-2.5888735473\Br,0,-2.2655976762,2.8869666536,0.0529192917\I,0,-2.44
 12175827,-1.7333450332,0.0647936077\At,0,1.9930976294,0.7281258298,0.0
 723673602\\Version=ES64L-G09RevD.01\State=2-A\HF=-3158.2766545\MP2=-31
 59.1698056\PUHF=-3158.2792976\PMP2-0=-3159.1720957\S2=0.798255\S2-1=0.
 785223\S2A=0.750897\RMSD=6.973e-09\PG=C01 [X(At1Bi1Br1Cl1F1I1)]\\@


 THERE'S NOTHING WRONG WITH FOLLOWING A TRAIN OF THOUGHT...
 AS LONG AS IT ULTIMATELY PULLS INTO THE STATION.
 Job cpu time:       0 days  0 hours  7 minutes 27.3 seconds.
 File lengths (MBytes):  RWF=   2067 Int=      0 D2E=      0 Chk=      4 Scr=      1
 Normal termination of Gaussian 09 at Fri May 19 15:42:56 2017.
