 Entering Gaussian System, Link 0=g09
 Initial command:
 /usr/local/apps/g09/l1.exe "/wrk/irikura/Gau-26867.inp" -scrdir="/wrk/irikura/"
 Entering Link 1 = /usr/local/apps/g09/l1.exe PID=     26869.
  
 Copyright (c) 1988,1990,1992,1993,1995,1998,2003,2009,2013,
            Gaussian, Inc.  All Rights Reserved.
  
 This is part of the Gaussian(R) 09 program.  It is based on
 the Gaussian(R) 03 system (copyright 2003, Gaussian, Inc.),
 the Gaussian(R) 98 system (copyright 1998, Gaussian, Inc.),
 the Gaussian(R) 94 system (copyright 1995, Gaussian, Inc.),
 the Gaussian 92(TM) system (copyright 1992, Gaussian, Inc.),
 the Gaussian 90(TM) system (copyright 1990, Gaussian, Inc.),
 the Gaussian 88(TM) system (copyright 1988, Gaussian, Inc.),
 the Gaussian 86(TM) system (copyright 1986, Carnegie Mellon
 University), and the Gaussian 82(TM) system (copyright 1983,
 Carnegie Mellon University). Gaussian is a federally registered
 trademark of Gaussian, Inc.
  
 This software contains proprietary and confidential information,
 including trade secrets, belonging to Gaussian, Inc.
  
 This software is provided under written license and may be
 used, copied, transmitted, or stored only in accord with that
 written license.
  
 The following legend is applicable only to US Government
 contracts under FAR:
  
                    RESTRICTED RIGHTS LEGEND
  
 Use, reproduction and disclosure by the US Government is
 subject to restrictions as set forth in subparagraphs (a)
 and (c) of the Commercial Computer Software - Restricted
 Rights clause in FAR 52.227-19.
  
 Gaussian, Inc.
 340 Quinnipiac St., Bldg. 40, Wallingford CT 06492
  
  
 ---------------------------------------------------------------
 Warning -- This program may not be used in any manner that
 competes with the business of Gaussian, Inc. or will provide
 assistance to any competitor of Gaussian, Inc.  The licensee
 of this program is prohibited from giving any competitor of
 Gaussian, Inc. access to this program.  By using this program,
 the user acknowledges that Gaussian, Inc. is engaged in the
 business of creating and licensing software in the field of
 computational chemistry and represents and warrants to the
 licensee that it is not a competitor of Gaussian, Inc. and that
 it will not use this program in any manner prohibited above.
 ---------------------------------------------------------------
  

 Cite this work as:
 Gaussian 09, Revision D.01,
 M. J. Frisch, G. W. Trucks, H. B. Schlegel, G. E. Scuseria, 
 M. A. Robb, J. R. Cheeseman, G. Scalmani, V. Barone, B. Mennucci, 
 G. A. Petersson, H. Nakatsuji, M. Caricato, X. Li, H. P. Hratchian, 
 A. F. Izmaylov, J. Bloino, G. Zheng, J. L. Sonnenberg, M. Hada, 
 M. Ehara, K. Toyota, R. Fukuda, J. Hasegawa, M. Ishida, T. Nakajima, 
 Y. Honda, O. Kitao, H. Nakai, T. Vreven, J. A. Montgomery, Jr., 
 J. E. Peralta, F. Ogliaro, M. Bearpark, J. J. Heyd, E. Brothers, 
 K. N. Kudin, V. N. Staroverov, T. Keith, R. Kobayashi, J. Normand, 
 K. Raghavachari, A. Rendell, J. C. Burant, S. S. Iyengar, J. Tomasi, 
 M. Cossi, N. Rega, J. M. Millam, M. Klene, J. E. Knox, J. B. Cross, 
 V. Bakken, C. Adamo, J. Jaramillo, R. Gomperts, R. E. Stratmann, 
 O. Yazyev, A. J. Austin, R. Cammi, C. Pomelli, J. W. Ochterski, 
 R. L. Martin, K. Morokuma, V. G. Zakrzewski, G. A. Voth, 
 P. Salvador, J. J. Dannenberg, S. Dapprich, A. D. Daniels, 
 O. Farkas, J. B. Foresman, J. V. Ortiz, J. Cioslowski, 
 and D. J. Fox, Gaussian, Inc., Wallingford CT, 2013.
 
 ******************************************
 Gaussian 09:  ES64L-G09RevD.01 24-Apr-2013
                19-May-2017 
 ******************************************
 %chk=ZnEt2.chk
 %nprocs=8
 Will use up to    8 processors via shared memory.
 %mem=2000mw
 ----------------------------------------------
 # HF/GEN gfinput geom=check scf=xqc stable=opt
 ----------------------------------------------
 1/29=2,38=1/1;
 2/12=2,40=1/2;
 3/5=7,11=2,14=-4,16=1,24=10,25=1,30=1/1,2,3;
 4//1;
 5/5=2,8=3,13=1,38=5/2,8;
 6/7=2,8=2,9=2,10=2,28=1/1;
 8/6=1,10=90,11=11/1;
 9/8=-3,42=1,46=1/14;
 5/5=2,8=3,17=40,38=5/8(-2);
 6/7=2,8=2,9=2,10=2,28=1/1;
 99/5=1,9=1/99;
 ----------------------------------------------------------------------
 preamble to BEB step 8: low-spin UHF for cation of ZnEt2, stability ch
 eck/follow
 ----------------------------------------------------------------------
 Structure from the checkpoint file:  "ZnEt2.chk"
 Charge =  1 Multiplicity = 2
 Redundant internal coordinates found in file.
 Zn,0,0.,0.,0.092059
 C,0,0.,1.933945,0.090127
 C,0,1.360973,2.577345,-0.233751
 H,0,-0.346594,2.294125,1.069841
 H,0,-0.75069,2.294418,-0.628225
 H,0,1.311324,3.675407,-0.22301
 H,0,2.134924,2.28887,0.488877
 H,0,1.727459,2.287037,-1.226622
 C,0,0.,-1.933945,0.090127
 C,0,-1.360973,-2.577345,-0.233751
 H,0,0.346594,-2.294125,1.069841
 H,0,0.75069,-2.294418,-0.628225
 H,0,-1.311324,-3.675407,-0.22301
 H,0,-2.134924,-2.28887,0.488877
 H,0,-1.727459,-2.287037,-1.226622
 Recover connectivity data from disk.
                          Input orientation:                          
 ---------------------------------------------------------------------
 Center     Atomic      Atomic             Coordinates (Angstroms)
 Number     Number       Type             X           Y           Z
 ---------------------------------------------------------------------
      1         30           0        0.000000    0.000000    0.092059
      2          6           0        0.000000    1.933945    0.090127
      3          6           0        1.360973    2.577345   -0.233751
      4          1           0       -0.346594    2.294125    1.069841
      5          1           0       -0.750690    2.294418   -0.628225
      6          1           0        1.311324    3.675407   -0.223010
      7          1           0        2.134924    2.288870    0.488877
      8          1           0        1.727459    2.287037   -1.226622
      9          6           0        0.000000   -1.933945    0.090127
     10          6           0       -1.360973   -2.577345   -0.233751
     11          1           0        0.346594   -2.294125    1.069841
     12          1           0        0.750690   -2.294418   -0.628225
     13          1           0       -1.311324   -3.675407   -0.223010
     14          1           0       -2.134924   -2.288870    0.488877
     15          1           0       -1.727459   -2.287037   -1.226622
 ---------------------------------------------------------------------
                    Distance matrix (angstroms):
                    1          2          3          4          5
     1  Zn   0.000000
     2  C    1.933946   0.000000
     3  C    2.932764   1.539840   0.000000
     4  H    2.517776   1.099862   2.166876   0.000000
     5  H    2.519265   1.099775   2.166744   1.745486   0.000000
     6  H    3.915029   2.202343   1.099236   2.515571   2.514604
     7  H    3.155042   2.200653   1.097456   2.548623   3.094304
     8  H    3.154928   2.200595   1.097444   3.094429   2.549383
     9  C    1.933946   3.867890   4.723228   4.353911   4.354150
    10  C    2.932764   4.723228   5.829221   5.143883   4.925660
    11  H    2.517776   4.353911   5.143883   4.640318   5.014199
    12  H    2.519265   4.354150   4.925660   5.014199   4.828204
    13  H    3.915029   5.769095   6.799867   6.183646   6.009769
    14  H    3.155042   4.748586   6.035191   4.953735   4.916355
    15  H    3.154928   4.747066   5.846915   5.307313   4.722487
                    6          7          8          9         10
     6  H    0.000000
     7  H    1.762834   0.000000
     8  H    1.762945   1.763227   0.000000
     9  C    5.769095   4.748586   4.747066   0.000000
    10  C    6.799867   6.035191   5.846915   1.539840   0.000000
    11  H    6.183646   4.953735   5.307313   1.099862   2.166876
    12  H    6.009769   4.916355   4.722487   1.099775   2.166744
    13  H    7.804662   6.925028   6.766992   2.202343   1.099236
    14  H    6.925028   6.259976   6.228954   2.200653   1.097456
    15  H    6.766992   6.228954   5.732243   2.200595   1.097444
                   11         12         13         14         15
    11  H    0.000000
    12  H    1.745486   0.000000
    13  H    2.515571   2.514604   0.000000
    14  H    2.548623   3.094304   1.762834   0.000000
    15  H    3.094429   2.549383   1.762945   1.763227   0.000000
 Stoichiometry    C4H10Zn(1+,2)
 Framework group  C2[C2(Zn),X(C4H10)]
 Deg. of freedom    20
 Full point group                 C2      NOp   2
 Largest Abelian subgroup         C2      NOp   2
 Largest concise Abelian subgroup C2      NOp   2
                         Standard orientation:                         
 ---------------------------------------------------------------------
 Center     Atomic      Atomic             Coordinates (Angstroms)
 Number     Number       Type             X           Y           Z
 ---------------------------------------------------------------------
      1         30           0        0.000000    0.000000    0.092059
      2          6           0        0.000000    1.933945    0.090127
      3          6           0        1.360973    2.577345   -0.233751
      4          1           0       -0.346594    2.294125    1.069841
      5          1           0       -0.750690    2.294418   -0.628225
      6          1           0        1.311324    3.675407   -0.223010
      7          1           0        2.134924    2.288870    0.488877
      8          1           0        1.727459    2.287037   -1.226622
      9          6           0        0.000000   -1.933945    0.090127
     10          6           0       -1.360973   -2.577345   -0.233751
     11          1           0        0.346594   -2.294125    1.069841
     12          1           0        0.750690   -2.294418   -0.628225
     13          1           0       -1.311324   -3.675407   -0.223010
     14          1           0       -2.134924   -2.288870    0.488877
     15          1           0       -1.727459   -2.287037   -1.226622
 ---------------------------------------------------------------------
 Rotational constants (GHZ):     14.6723335      1.3797086      1.3187032
 General basis read from cards:  (5D, 7F)
 AO basis set in the form of general basis input (Overlap normalization):
      1 0
 S  14 1.00       0.000000000000
      0.5820021000D+07  0.8542885478D-05
      0.8715234000D+06  0.6642467562D-04
      0.1983350000D+06  0.3492362619D-03
      0.5617631000D+05  0.1472734312D-02
      0.1832582000D+05  0.5334339797D-02
      0.6614955000D+04  0.1711415094D-01
      0.2579199000D+04  0.4890302932D-01
      0.1068849000D+04  0.1216940687D+00
      0.4651045000D+03  0.2474323562D+00
      0.2104130000D+03  0.3578277267D+00
      0.9761629000D+02  0.2793442886D+00
      0.4438020000D+02  0.6868263222D-01
      0.1030891000D+02  0.3221701162D-02
      0.4553645000D+01 -0.7817474491D-03
 S  11 1.00       0.000000000000
      0.1832582000D+05 -0.6322839183D-05
      0.6614955000D+04 -0.6785222718D-04
      0.2579199000D+04 -0.5492543552D-03
      0.1068849000D+04 -0.3394157516D-02
      0.4651045000D+03 -0.1667671016D-01
      0.2104130000D+03 -0.5842591737D-01
      0.9761629000D+02 -0.1043750636D+00
      0.4438020000D+02  0.6355596026D-01
      0.2142308000D+02  0.5002009850D+00
      0.1030891000D+02  0.4781904256D+00
      0.4553645000D+01  0.8587611250D-01
 S  10 1.00       0.000000000000
      0.1832582000D+05 -0.8548270921D-06
      0.2579199000D+04 -0.1228626536D-04
      0.4651045000D+03 -0.1407868226D-03
      0.9761629000D+02 -0.4495773745D-03
      0.2142308000D+02 -0.6128804275D-02
      0.1030891000D+02  0.4154271565D-01
      0.4553645000D+01 -0.2894462579D+00
      0.2132821000D+01 -0.9361090165D-01
      0.9296970000D+00  0.1377489710D+01
      0.1921470000D+00 -0.1362868603D+01
 S   8 1.00       0.000000000000
      0.4651045000D+03 -0.7160119717D-05
      0.9761629000D+02 -0.2253209183D-04
      0.2142308000D+02 -0.1194939508D-02
      0.4553645000D+01 -0.1518081215D-01
      0.2132821000D+01  0.4513884670D-01
      0.9296970000D+00  0.2683958730D+00
      0.1921470000D+00 -0.4736441984D+00
      0.8759500000D-01 -0.6770952844D+00
 S  11 1.00       0.000000000000
      0.1832582000D+05  0.5609979057D-05
      0.6614955000D+04 -0.2573925820D-05
      0.2579199000D+04  0.7815859322D-04
      0.4651045000D+03  0.9576420082D-03
      0.2104130000D+03  0.7011261585D-03
      0.9761629000D+02  0.6552647950D-02
      0.4438020000D+02 -0.8815197364D-02
      0.2142308000D+02 -0.2453803490D-01
      0.1030891000D+02 -0.1203210329D+00
      0.4553645000D+01  0.1524538980D+00
      0.1921470000D+00  0.9781229693D+00
 S  11 1.00       0.000000000000
      0.1832582000D+05 -0.8564366277D-05
      0.6614955000D+04  0.3681138252D-05
      0.2579199000D+04 -0.1202612026D-03
      0.4651045000D+03 -0.1371070220D-02
      0.9761629000D+02 -0.5254556873D-02
      0.4438020000D+02  0.1268610915D-01
      0.2142308000D+02 -0.9696597388D-01
      0.1030891000D+02 -0.1771136145D+00
      0.4553645000D+01  0.1664222468D+00
      0.2132821000D+01  0.1003959530D+01
      0.1921470000D+00 -0.8141051538D+00
 S   1 1.00       0.000000000000
      0.3770200000D-01  0.1000000000D+01
 P  11 1.00       0.000000000000
      0.2441198000D+05  0.4105114657D-04
      0.5778518000D+04  0.3614546896D-03
      0.1876862000D+04  0.2090656696D-02
      0.7182361000D+03  0.9232712648D-02
      0.3048327000D+03  0.3281554506D-01
      0.1390453000D+03  0.9430366596D-01
      0.6680417000D+02  0.2094234333D+00
      0.3320699000D+02  0.3350550786D+00
      0.1692816000D+02  0.3308607794D+00
      0.8696229000D+01  0.1521709559D+00
      0.4350510000D+01  0.2172615146D-01
 P  10 1.00       0.000000000000
      0.5778518000D+04 -0.8877851708D-05
      0.7182361000D+03 -0.2441030315D-03
      0.3048327000D+03 -0.5407590074D-04
      0.1390453000D+03 -0.3043274181D-02
      0.6680417000D+02 -0.5430271958D-03
      0.3320699000D+02 -0.1903663998D-01
      0.1692816000D+02  0.2539021175D-01
      0.8696229000D+01 -0.3141338769D-01
      0.4350510000D+01 -0.2816228848D-01
      0.9953870000D+00  0.1020816268D+01
 P   9 1.00       0.000000000000
      0.7182361000D+03  0.2668890615D-05
      0.3048327000D+03 -0.3374783888D-05
      0.6680417000D+02 -0.1584306381D-03
      0.1692816000D+02  0.9899985402D-03
      0.4350510000D+01 -0.2699464774D-01
      0.2116523000D+01 -0.1249115445D-01
      0.9953870000D+00  0.7256894641D-01
      0.3781120000D+00  0.3829943468D+00
      0.1345790000D+00  0.6530286935D+00
 P   9 1.00       0.000000000000
      0.7182361000D+03  0.9390726746D-05
      0.3048327000D+03 -0.1185545227D-04
      0.6680417000D+02 -0.5108126233D-03
      0.1692816000D+02  0.3945575099D-02
      0.8696229000D+01  0.5580351718D-02
      0.4350510000D+01 -0.8244475427D-01
      0.2116523000D+01  0.9105007379D-02
      0.9953870000D+00  0.3337692793D+00
      0.3781120000D+00  0.7431532920D+00
 P  10 1.00       0.000000000000
      0.5778518000D+04 -0.7802763863D-05
      0.7182361000D+03 -0.1693919350D-03
      0.3048327000D+03  0.3159389680D-03
      0.6680417000D+02  0.1017184620D-01
      0.3320699000D+02  0.1254561776D-01
      0.1692816000D+02  0.5085111829D-01
      0.8696229000D+01 -0.1745632491D+00
      0.4350510000D+01 -0.5575487626D+00
      0.2116523000D+01 -0.6695223776D+00
      0.9953870000D+00  0.4927371878D+00
 P   1 1.00       0.000000000000
      0.4628200000D-01  0.1000000000D+01
 D   5 1.00       0.000000000000
      0.6144981000D+02 -0.1627069828D-02
      0.2305689000D+02 -0.5645739998D-02
      0.9577739000D+01 -0.7107323650D-01
      0.4133734000D+01  0.2883883047D+00
      0.1747518000D+01  0.8015717485D+00
 D   5 1.00       0.000000000000
      0.6144981000D+02 -0.9057168371D-03
      0.9577739000D+01 -0.2245656133D-01
      0.4133734000D+01  0.1050357490D+00
      0.1747518000D+01 -0.8282428294D-01
      0.6995600000D+00 -0.9692942320D+00
 D   5 1.00       0.000000000000
      0.2056177000D+03  0.4818927105D-02
      0.6144981000D+02  0.3917234290D-01
      0.2305689000D+02  0.1635410151D+00
      0.9577739000D+01  0.4643636076D+00
      0.4133734000D+01  0.4884185612D+00
 D   1 1.00       0.000000000000
      0.2516080000D+00  0.1000000000D+01
 F   1 1.00       0.000000000000
      0.5792200000D+01  0.1000000000D+01
 F   1 1.00       0.000000000000
      0.1485100000D+01  0.1000000000D+01
 G   1 1.00       0.000000000000
      0.4114400000D+01  0.1000000000D+01
 ****
      2 0
 S   7 1.00       0.000000000000
      0.8236000000D+04  0.5419783203D-03
      0.1235000000D+04  0.4192873817D-02
      0.2808000000D+03  0.2152216205D-01
      0.7927000000D+02  0.8353432195D-01
      0.2559000000D+02  0.2395828457D+00
      0.8997000000D+01  0.4428528419D+00
      0.3319000000D+01  0.3517995618D+00
 S   6 1.00       0.000000000000
      0.2808000000D+03 -0.5949224937D-04
      0.7927000000D+02 -0.1148158310D-02
      0.2559000000D+02 -0.1001913745D-01
      0.8997000000D+01 -0.6121949230D-01
      0.3319000000D+01 -0.1732698541D+00
      0.3643000000D+00  0.1072915192D+01
 S   1 1.00       0.000000000000
      0.9059000000D+00  0.1000000000D+01
 S   1 1.00       0.000000000000
      0.1285000000D+00  0.1000000000D+01
 P   3 1.00       0.000000000000
      0.1871000000D+02  0.3942638716D-01
      0.4133000000D+01  0.2440889849D+00
      0.1200000000D+01  0.8154920089D+00
 P   1 1.00       0.000000000000
      0.3827000000D+00  0.1000000000D+01
 P   1 1.00       0.000000000000
      0.1209000000D+00  0.1000000000D+01
 D   1 1.00       0.000000000000
      0.1097000000D+01  0.1000000000D+01
 D   1 1.00       0.000000000000
      0.3180000000D+00  0.1000000000D+01
 F   1 1.00       0.000000000000
      0.7610000000D+00  0.1000000000D+01
 ****
      3 0
 S   7 1.00       0.000000000000
      0.8236000000D+04  0.5419783203D-03
      0.1235000000D+04  0.4192873817D-02
      0.2808000000D+03  0.2152216205D-01
      0.7927000000D+02  0.8353432195D-01
      0.2559000000D+02  0.2395828457D+00
      0.8997000000D+01  0.4428528419D+00
      0.3319000000D+01  0.3517995618D+00
 S   6 1.00       0.000000000000
      0.2808000000D+03 -0.5949224937D-04
      0.7927000000D+02 -0.1148158310D-02
      0.2559000000D+02 -0.1001913745D-01
      0.8997000000D+01 -0.6121949230D-01
      0.3319000000D+01 -0.1732698541D+00
      0.3643000000D+00  0.1072915192D+01
 S   1 1.00       0.000000000000
      0.9059000000D+00  0.1000000000D+01
 S   1 1.00       0.000000000000
      0.1285000000D+00  0.1000000000D+01
 P   3 1.00       0.000000000000
      0.1871000000D+02  0.3942638716D-01
      0.4133000000D+01  0.2440889849D+00
      0.1200000000D+01  0.8154920089D+00
 P   1 1.00       0.000000000000
      0.3827000000D+00  0.1000000000D+01
 P   1 1.00       0.000000000000
      0.1209000000D+00  0.1000000000D+01
 D   1 1.00       0.000000000000
      0.1097000000D+01  0.1000000000D+01
 D   1 1.00       0.000000000000
      0.3180000000D+00  0.1000000000D+01
 F   1 1.00       0.000000000000
      0.7610000000D+00  0.1000000000D+01
 ****
      4 0
 S   3 1.00       0.000000000000
      0.3387000000D+02  0.2549486323D-01
      0.5095000000D+01  0.1903627659D+00
      0.1159000000D+01  0.8521620222D+00
 S   1 1.00       0.000000000000
      0.3258000000D+00  0.1000000000D+01
 S   1 1.00       0.000000000000
      0.1027000000D+00  0.1000000000D+01
 P   1 1.00       0.000000000000
      0.1407000000D+01  0.1000000000D+01
 P   1 1.00       0.000000000000
      0.3880000000D+00  0.1000000000D+01
 D   1 1.00       0.000000000000
      0.1057000000D+01  0.1000000000D+01
 ****
      5 0
 S   3 1.00       0.000000000000
      0.3387000000D+02  0.2549486323D-01
      0.5095000000D+01  0.1903627659D+00
      0.1159000000D+01  0.8521620222D+00
 S   1 1.00       0.000000000000
      0.3258000000D+00  0.1000000000D+01
 S   1 1.00       0.000000000000
      0.1027000000D+00  0.1000000000D+01
 P   1 1.00       0.000000000000
      0.1407000000D+01  0.1000000000D+01
 P   1 1.00       0.000000000000
      0.3880000000D+00  0.1000000000D+01
 D   1 1.00       0.000000000000
      0.1057000000D+01  0.1000000000D+01
 ****
      6 0
 S   3 1.00       0.000000000000
      0.3387000000D+02  0.2549486323D-01
      0.5095000000D+01  0.1903627659D+00
      0.1159000000D+01  0.8521620222D+00
 S   1 1.00       0.000000000000
      0.3258000000D+00  0.1000000000D+01
 S   1 1.00       0.000000000000
      0.1027000000D+00  0.1000000000D+01
 P   1 1.00       0.000000000000
      0.1407000000D+01  0.1000000000D+01
 P   1 1.00       0.000000000000
      0.3880000000D+00  0.1000000000D+01
 D   1 1.00       0.000000000000
      0.1057000000D+01  0.1000000000D+01
 ****
      7 0
 S   3 1.00       0.000000000000
      0.3387000000D+02  0.2549486323D-01
      0.5095000000D+01  0.1903627659D+00
      0.1159000000D+01  0.8521620222D+00
 S   1 1.00       0.000000000000
      0.3258000000D+00  0.1000000000D+01
 S   1 1.00       0.000000000000
      0.1027000000D+00  0.1000000000D+01
 P   1 1.00       0.000000000000
      0.1407000000D+01  0.1000000000D+01
 P   1 1.00       0.000000000000
      0.3880000000D+00  0.1000000000D+01
 D   1 1.00       0.000000000000
      0.1057000000D+01  0.1000000000D+01
 ****
      8 0
 S   3 1.00       0.000000000000
      0.3387000000D+02  0.2549486323D-01
      0.5095000000D+01  0.1903627659D+00
      0.1159000000D+01  0.8521620222D+00
 S   1 1.00       0.000000000000
      0.3258000000D+00  0.1000000000D+01
 S   1 1.00       0.000000000000
      0.1027000000D+00  0.1000000000D+01
 P   1 1.00       0.000000000000
      0.1407000000D+01  0.1000000000D+01
 P   1 1.00       0.000000000000
      0.3880000000D+00  0.1000000000D+01
 D   1 1.00       0.000000000000
      0.1057000000D+01  0.1000000000D+01
 ****
      9 0
 S   7 1.00       0.000000000000
      0.8236000000D+04  0.5419783203D-03
      0.1235000000D+04  0.4192873817D-02
      0.2808000000D+03  0.2152216205D-01
      0.7927000000D+02  0.8353432195D-01
      0.2559000000D+02  0.2395828457D+00
      0.8997000000D+01  0.4428528419D+00
      0.3319000000D+01  0.3517995618D+00
 S   6 1.00       0.000000000000
      0.2808000000D+03 -0.5949224937D-04
      0.7927000000D+02 -0.1148158310D-02
      0.2559000000D+02 -0.1001913745D-01
      0.8997000000D+01 -0.6121949230D-01
      0.3319000000D+01 -0.1732698541D+00
      0.3643000000D+00  0.1072915192D+01
 S   1 1.00       0.000000000000
      0.9059000000D+00  0.1000000000D+01
 S   1 1.00       0.000000000000
      0.1285000000D+00  0.1000000000D+01
 P   3 1.00       0.000000000000
      0.1871000000D+02  0.3942638716D-01
      0.4133000000D+01  0.2440889849D+00
      0.1200000000D+01  0.8154920089D+00
 P   1 1.00       0.000000000000
      0.3827000000D+00  0.1000000000D+01
 P   1 1.00       0.000000000000
      0.1209000000D+00  0.1000000000D+01
 D   1 1.00       0.000000000000
      0.1097000000D+01  0.1000000000D+01
 D   1 1.00       0.000000000000
      0.3180000000D+00  0.1000000000D+01
 F   1 1.00       0.000000000000
      0.7610000000D+00  0.1000000000D+01
 ****
     10 0
 S   7 1.00       0.000000000000
      0.8236000000D+04  0.5419783203D-03
      0.1235000000D+04  0.4192873817D-02
      0.2808000000D+03  0.2152216205D-01
      0.7927000000D+02  0.8353432195D-01
      0.2559000000D+02  0.2395828457D+00
      0.8997000000D+01  0.4428528419D+00
      0.3319000000D+01  0.3517995618D+00
 S   6 1.00       0.000000000000
      0.2808000000D+03 -0.5949224937D-04
      0.7927000000D+02 -0.1148158310D-02
      0.2559000000D+02 -0.1001913745D-01
      0.8997000000D+01 -0.6121949230D-01
      0.3319000000D+01 -0.1732698541D+00
      0.3643000000D+00  0.1072915192D+01
 S   1 1.00       0.000000000000
      0.9059000000D+00  0.1000000000D+01
 S   1 1.00       0.000000000000
      0.1285000000D+00  0.1000000000D+01
 P   3 1.00       0.000000000000
      0.1871000000D+02  0.3942638716D-01
      0.4133000000D+01  0.2440889849D+00
      0.1200000000D+01  0.8154920089D+00
 P   1 1.00       0.000000000000
      0.3827000000D+00  0.1000000000D+01
 P   1 1.00       0.000000000000
      0.1209000000D+00  0.1000000000D+01
 D   1 1.00       0.000000000000
      0.1097000000D+01  0.1000000000D+01
 D   1 1.00       0.000000000000
      0.3180000000D+00  0.1000000000D+01
 F   1 1.00       0.000000000000
      0.7610000000D+00  0.1000000000D+01
 ****
     11 0
 S   3 1.00       0.000000000000
      0.3387000000D+02  0.2549486323D-01
      0.5095000000D+01  0.1903627659D+00
      0.1159000000D+01  0.8521620222D+00
 S   1 1.00       0.000000000000
      0.3258000000D+00  0.1000000000D+01
 S   1 1.00       0.000000000000
      0.1027000000D+00  0.1000000000D+01
 P   1 1.00       0.000000000000
      0.1407000000D+01  0.1000000000D+01
 P   1 1.00       0.000000000000
      0.3880000000D+00  0.1000000000D+01
 D   1 1.00       0.000000000000
      0.1057000000D+01  0.1000000000D+01
 ****
     12 0
 S   3 1.00       0.000000000000
      0.3387000000D+02  0.2549486323D-01
      0.5095000000D+01  0.1903627659D+00
      0.1159000000D+01  0.8521620222D+00
 S   1 1.00       0.000000000000
      0.3258000000D+00  0.1000000000D+01
 S   1 1.00       0.000000000000
      0.1027000000D+00  0.1000000000D+01
 P   1 1.00       0.000000000000
      0.1407000000D+01  0.1000000000D+01
 P   1 1.00       0.000000000000
      0.3880000000D+00  0.1000000000D+01
 D   1 1.00       0.000000000000
      0.1057000000D+01  0.1000000000D+01
 ****
     13 0
 S   3 1.00       0.000000000000
      0.3387000000D+02  0.2549486323D-01
      0.5095000000D+01  0.1903627659D+00
      0.1159000000D+01  0.8521620222D+00
 S   1 1.00       0.000000000000
      0.3258000000D+00  0.1000000000D+01
 S   1 1.00       0.000000000000
      0.1027000000D+00  0.1000000000D+01
 P   1 1.00       0.000000000000
      0.1407000000D+01  0.1000000000D+01
 P   1 1.00       0.000000000000
      0.3880000000D+00  0.1000000000D+01
 D   1 1.00       0.000000000000
      0.1057000000D+01  0.1000000000D+01
 ****
     14 0
 S   3 1.00       0.000000000000
      0.3387000000D+02  0.2549486323D-01
      0.5095000000D+01  0.1903627659D+00
      0.1159000000D+01  0.8521620222D+00
 S   1 1.00       0.000000000000
      0.3258000000D+00  0.1000000000D+01
 S   1 1.00       0.000000000000
      0.1027000000D+00  0.1000000000D+01
 P   1 1.00       0.000000000000
      0.1407000000D+01  0.1000000000D+01
 P   1 1.00       0.000000000000
      0.3880000000D+00  0.1000000000D+01
 D   1 1.00       0.000000000000
      0.1057000000D+01  0.1000000000D+01
 ****
     15 0
 S   3 1.00       0.000000000000
      0.3387000000D+02  0.2549486323D-01
      0.5095000000D+01  0.1903627659D+00
      0.1159000000D+01  0.8521620222D+00
 S   1 1.00       0.000000000000
      0.3258000000D+00  0.1000000000D+01
 S   1 1.00       0.000000000000
      0.1027000000D+00  0.1000000000D+01
 P   1 1.00       0.000000000000
      0.1407000000D+01  0.1000000000D+01
 P   1 1.00       0.000000000000
      0.3880000000D+00  0.1000000000D+01
 D   1 1.00       0.000000000000
      0.1057000000D+01  0.1000000000D+01
 ****

 There are   191 symmetry adapted cartesian basis functions of A   symmetry.
 There are   183 symmetry adapted cartesian basis functions of B   symmetry.
 There are   166 symmetry adapted basis functions of A   symmetry.
 There are   162 symmetry adapted basis functions of B   symmetry.
   328 basis functions,   725 primitive gaussians,   374 cartesian basis functions
    32 alpha electrons       31 beta electrons
       nuclear repulsion energy       320.7392817687 Hartrees.
 NAtoms=   15 NActive=   15 NUniq=    8 SFac= 3.52D+00 NAtFMM=   60 NAOKFM=F Big=F
 Integral buffers will be    131072 words long.
 Raffenetti 2 integral format.
 Two-electron integral symmetry is turned on.
 One-electron integrals computed using PRISM.
 NBasis=   328 RedAO= T EigKep=  6.20D-04  NBF=   166   162
 NBsUse=   328 1.00D-06 EigRej= -1.00D+00 NBFU=   166   162
 ExpMin= 3.77D-02 ExpMax= 5.82D+06 ExpMxC= 6.61D+03 IAcc=3 IRadAn=         5 AccDes= 0.00D+00
 Harris functional with IExCor=  205 and IRadAn=       5 diagonalized for initial guess.
 HarFok:  IExCor=  205 AccDes= 0.00D+00 IRadAn=         5 IDoV= 1 UseB2=F ITyADJ=14
 ICtDFT=  3500011 ScaDFX=  1.000000  1.000000  1.000000  1.000000
 FoFCou: FMM=F IPFlag=           0 FMFlag=      100000 FMFlg1=           0
         NFxFlg=           0 DoJE=T BraDBF=F KetDBF=T FulRan=T
         wScrn=  0.000000 ICntrl=     500 IOpCl=  0 I1Cent=   200000004 NGrid=           0
         NMat0=    1 NMatS0=      1 NMatT0=    0 NMatD0=    1 NMtDS0=    0 NMtDT0=    0
 Petite list used in FoFCou.
 Initial guess orbital symmetries:
 Alpha Orbitals:
       Occupied  (A) (A) (B) (B) (A) (A) (B) (B) (A) (A) (B) (B)
                 (A) (A) (B) (A) (B) (B) (A) (A) (B) (A) (B) (B)
                 (A) (A) (A) (B) (A) (B) (B) (A)
       Virtual   (B) (A) (A) (B) (A) (A) (A) (B) (B) (A) (B) (B)
                 (B) (A) (A) (A) (B) (A) (B) (A) (B) (B) (A) (A)
                 (B) (B) (A) (B) (A) (A) (B) (B) (B) (A) (B) (A)
                 (B) (A) (B) (A) (A) (B) (A) (A) (B) (B) (A) (B)
                 (A) (B) (A) (A) (B) (A) (B) (A) (B) (B) (B) (A)
                 (A) (B) (A) (B) (A) (B) (B) (A) (A) (A) (B) (B)
                 (B) (A) (A) (B) (A) (B) (A) (B) (B) (A) (A) (A)
                 (B) (A) (B) (A) (A) (B) (B) (A) (B) (A) (A) (B)
                 (B) (A) (A) (B) (B) (A) (B) (A) (B) (B) (B) (A)
                 (A) (A) (B) (A) (B) (B) (A) (B) (A) (B) (A) (B)
                 (A) (A) (B) (B) (A) (A) (A) (B) (A) (B) (B) (B)
                 (A) (B) (A) (A) (A) (B) (A) (B) (B) (B) (A) (A)
                 (B) (A) (B) (B) (A) (B) (A) (B) (A) (A) (B) (B)
                 (A) (A) (B) (A) (A) (B) (B) (B) (A) (A) (B) (A)
                 (B) (A) (B) (A) (A) (A) (B) (B) (B) (A) (B) (B)
                 (A) (A) (B) (B) (A) (B) (A) (B) (A) (A) (B) (A)
                 (A) (B) (A) (B) (B) (A) (A) (B) (B) (B) (A) (A)
                 (B) (A) (A) (B) (B) (A) (B) (A) (A) (B) (B) (A)
                 (A) (B) (B) (A) (A) (B) (A) (B) (B) (A) (B) (A)
                 (B) (A) (B) (A) (B) (A) (B) (A) (A) (B) (B) (A)
                 (A) (B) (B) (A) (B) (A) (B) (A) (B) (A) (B) (A)
                 (B) (B) (A) (B) (A) (A) (B) (B) (A) (A) (B) (A)
                 (B) (A) (B) (A) (B) (B) (A) (B) (A) (B) (A) (A)
                 (A) (B) (B) (A) (A) (B) (B) (A) (A) (B) (B) (A)
                 (B) (B) (A) (A) (B) (B) (A) (A)
 Beta  Orbitals:
       Occupied  (A) (A) (B) (B) (A) (A) (B) (B) (A) (A) (B) (B)
                 (A) (A) (B) (A) (B) (B) (A) (A) (B) (A) (B) (B)
                 (A) (A) (A) (B) (A) (B) (B)
       Virtual   (A) (B) (A) (A) (B) (A) (A) (A) (B) (B) (A) (B)
                 (B) (B) (A) (A) (A) (B) (A) (B) (A) (B) (B) (A)
                 (A) (B) (B) (A) (B) (A) (A) (B) (B) (B) (A) (B)
                 (A) (B) (A) (B) (A) (A) (B) (A) (A) (B) (B) (A)
                 (B) (A) (B) (A) (A) (B) (A) (B) (A) (B) (B) (B)
                 (A) (A) (B) (A) (B) (A) (B) (B) (A) (A) (A) (B)
                 (B) (B) (A) (A) (B) (A) (B) (A) (B) (B) (A) (A)
                 (A) (B) (A) (B) (A) (A) (B) (B) (A) (B) (A) (A)
                 (B) (B) (A) (A) (B) (B) (A) (B) (A) (B) (B) (B)
                 (A) (A) (A) (B) (A) (B) (B) (A) (B) (A) (B) (A)
                 (B) (A) (A) (B) (B) (A) (A) (A) (B) (A) (B) (B)
                 (B) (A) (B) (A) (A) (A) (B) (A) (B) (B) (B) (A)
                 (A) (B) (A) (B) (B) (A) (B) (A) (B) (A) (A) (B)
                 (B) (A) (A) (B) (A) (A) (B) (B) (B) (A) (A) (B)
                 (A) (B) (A) (B) (A) (A) (A) (B) (B) (B) (A) (B)
                 (B) (A) (A) (B) (B) (A) (B) (A) (B) (A) (A) (B)
                 (A) (A) (B) (A) (B) (B) (A) (A) (B) (B) (B) (A)
                 (A) (B) (A) (A) (B) (B) (A) (B) (A) (A) (B) (B)
                 (A) (A) (B) (B) (A) (A) (B) (A) (B) (B) (A) (B)
                 (A) (B) (A) (B) (A) (B) (A) (B) (A) (A) (B) (B)
                 (A) (A) (B) (B) (A) (B) (A) (B) (A) (B) (A) (B)
                 (A) (B) (B) (A) (B) (A) (A) (B) (B) (A) (A) (B)
                 (A) (B) (A) (B) (A) (B) (B) (A) (B) (A) (B) (A)
                 (A) (A) (B) (B) (A) (A) (B) (B) (A) (A) (B) (B)
                 (A) (B) (B) (A) (A) (B) (B) (A) (A)
 The electronic state of the initial guess is 2-A.
 Initial guess <Sx>= 0.0000 <Sy>= 0.0000 <Sz>= 0.5000 <S**2>= 0.7500 S= 0.5000
 Requested convergence on RMS density matrix=1.00D-08 within  64 cycles.
 Requested convergence on MAX density matrix=1.00D-06.
 Requested convergence on             energy=1.00D-06.
 No special actions if energy rises.
 EnCoef did   100 forward-backward iterations
 Initial convergence to 1.0D-05 achieved.  Increase integral accuracy.
 SCF Done:  E(UHF) =  -1934.78623294     A.U. after   17 cycles
            NFock= 17  Conv=0.81D-08     -V/T= 2.0000
 <Sx>= 0.0000 <Sy>= 0.0000 <Sz>= 0.5000 <S**2>= 0.7587 S= 0.5043
 <L.S>= 0.000000000000E+00
 Annihilation of the first spin contaminant:
 S**2 before annihilation     0.7587,   after     0.7501
 QCSCF skips out because SCF is already converged.

 **********************************************************************

            Population analysis using the SCF density.

 **********************************************************************

 Orbital symmetries:
 Alpha Orbitals:
       Occupied  (A) (A) (B) (A) (B) (B) (A) (A) (B) (A) (B) (B)
                 (A) (A) (B) (A) (B) (B) (A) (A) (B) (A) (A) (B)
                 (A) (B) (B) (A) (A) (B) (A) (B)
       Virtual   (B) (A) (A) (B) (A) (A) (B) (A) (A) (B) (B) (B)
                 (A) (A) (B) (A) (B) (A) (B) (A) (B) (A) (B) (B)
                 (A) (B) (A) (B) (A) (B) (A) (A) (B) (B) (B) (A)
                 (B) (A) (B) (A) (A) (A) (B) (A) (B) (A) (B) (A)
                 (B) (B) (A) (A) (B) (A) (B) (A) (B) (A) (B) (B)
                 (A) (B) (A) (B) (B) (A) (A) (B) (A) (B) (B) (A)
                 (B) (A) (A) (A) (B) (B) (B) (A) (B) (A) (A) (A)
                 (A) (B) (B) (A) (B) (A) (A) (B) (B) (A) (A) (B)
                 (B) (A) (A) (B) (B) (A) (B) (A) (B) (B) (A) (B)
                 (A) (A) (B) (A) (B) (A) (B) (A) (B) (B) (A) (A)
                 (B) (B) (A) (A) (B) (B) (A) (A) (A) (B) (B) (B)
                 (A) (B) (A) (B) (A) (A) (A) (B) (B) (B) (A) (A)
                 (B) (A) (B) (B) (A) (B) (A) (A) (B) (A) (B) (B)
                 (A) (B) (A) (A) (B) (A) (B) (B) (A) (A) (B) (A)
                 (A) (B) (A) (B) (A) (B) (A) (B) (B) (A) (B) (A)
                 (B) (B) (A) (A) (B) (A) (B) (B) (B) (A) (A) (A)
                 (B) (A) (B) (A) (A) (B) (A) (B) (B) (B) (A) (A)
                 (B) (A) (B) (A) (B) (A) (A) (B) (B) (A) (B) (A)
                 (A) (B) (A) (B) (B) (A) (A) (B) (A) (B) (B) (A)
                 (B) (A) (B) (A) (B) (A) (B) (A) (A) (B) (B) (A)
                 (A) (B) (B) (A) (B) (A) (B) (A) (A) (B) (B) (A)
                 (B) (B) (A) (B) (A) (A) (B) (B) (A) (A) (B) (A)
                 (B) (B) (A) (A) (B) (B) (A) (B) (A) (B) (A) (A)
                 (A) (B) (B) (A) (A) (B) (B) (A) (A) (B) (B) (A)
                 (B) (B) (A) (A) (B) (A) (B) (A)
 Beta  Orbitals:
       Occupied  (A) (A) (B) (A) (B) (B) (A) (B) (A) (A) (B) (A)
                 (B) (A) (B) (A) (B) (A) (B) (A) (B) (A) (A) (B)
                 (B) (A) (B) (A) (A) (B) (B)
       Virtual   (A) (B) (A) (A) (B) (A) (A) (B) (A) (B) (B) (A)
                 (B) (A) (A) (B) (A) (B) (A) (B) (A) (B) (B) (A)
                 (B) (A) (B) (A) (B) (A) (B) (A) (A) (B) (B) (B)
                 (A) (B) (A) (B) (A) (A) (B) (A) (A) (B) (A) (B)
                 (A) (B) (B) (A) (A) (A) (B) (B) (A) (B) (A) (B)
                 (B) (A) (B) (A) (B) (B) (A) (A) (B) (A) (B) (B)
                 (A) (B) (A) (A) (A) (B) (B) (B) (A) (B) (A) (A)
                 (A) (A) (B) (B) (A) (B) (A) (A) (B) (B) (A) (A)
                 (B) (B) (A) (A) (B) (B) (A) (B) (A) (B) (B) (A)
                 (B) (A) (A) (B) (A) (B) (A) (B) (A) (B) (B) (A)
                 (A) (B) (B) (A) (A) (B) (B) (A) (A) (A) (B) (B)
                 (B) (A) (B) (A) (B) (A) (A) (A) (B) (B) (B) (A)
                 (A) (B) (A) (B) (B) (A) (B) (A) (A) (B) (A) (B)
                 (B) (A) (B) (A) (A) (B) (A) (B) (B) (A) (A) (B)
                 (A) (A) (B) (A) (B) (A) (B) (A) (B) (B) (A) (B)
                 (A) (B) (B) (A) (A) (B) (A) (B) (B) (B) (A) (A)
                 (A) (B) (A) (B) (A) (A) (B) (A) (B) (B) (B) (A)
                 (A) (B) (A) (B) (A) (B) (A) (A) (B) (B) (A) (B)
                 (A) (A) (B) (A) (B) (B) (A) (A) (B) (A) (B) (B)
                 (A) (B) (A) (B) (A) (B) (A) (B) (A) (A) (B) (B)
                 (A) (A) (B) (B) (A) (B) (A) (B) (A) (A) (B) (B)
                 (A) (B) (B) (A) (B) (A) (A) (B) (B) (A) (A) (B)
                 (A) (B) (B) (A) (A) (B) (B) (A) (B) (A) (B) (A)
                 (A) (A) (B) (B) (A) (A) (B) (B) (A) (A) (B) (B)
                 (A) (B) (B) (A) (A) (B) (A) (B) (A)
 The electronic state is 2-A.
 Alpha  occ. eigenvalues -- -353.57762 -44.63777 -39.20155 -39.20143 -39.20071
 Alpha  occ. eigenvalues --  -11.41392 -11.41391 -11.38686 -11.38686  -5.91601
 Alpha  occ. eigenvalues --   -4.12287  -4.11727  -4.11714  -1.20381  -1.19275
 Alpha  occ. eigenvalues --   -1.07566  -1.06438  -1.06316  -1.06312  -1.06207
 Alpha  occ. eigenvalues --   -1.01127  -0.99247  -0.77730  -0.77169  -0.75805
 Alpha  occ. eigenvalues --   -0.75032  -0.68703  -0.68646  -0.66294  -0.66042
 Alpha  occ. eigenvalues --   -0.63582  -0.58321
 Alpha virt. eigenvalues --   -0.10155  -0.10000  -0.08991  -0.00578   0.03309
 Alpha virt. eigenvalues --    0.03748   0.04797   0.05805   0.06067   0.06401
 Alpha virt. eigenvalues --    0.07308   0.08853   0.10794   0.11520   0.12688
 Alpha virt. eigenvalues --    0.14685   0.16835   0.18235   0.21434   0.23539
 Alpha virt. eigenvalues --    0.24314   0.24827   0.25010   0.25654   0.25924
 Alpha virt. eigenvalues --    0.30437   0.32456   0.38764   0.40962   0.43321
 Alpha virt. eigenvalues --    0.43890   0.44524   0.44762   0.44976   0.45886
 Alpha virt. eigenvalues --    0.46706   0.48775   0.49739   0.50704   0.50851
 Alpha virt. eigenvalues --    0.51917   0.53101   0.53672   0.55087   0.57037
 Alpha virt. eigenvalues --    0.57513   0.58400   0.63661   0.64054   0.69965
 Alpha virt. eigenvalues --    0.72088   0.74320   0.78614   0.78784   0.80288
 Alpha virt. eigenvalues --    0.81999   0.84817   0.86830   0.87775   0.89402
 Alpha virt. eigenvalues --    0.93178   0.94230   0.97440   0.98205   1.01365
 Alpha virt. eigenvalues --    1.01517   1.06881   1.07024   1.09115   1.10306
 Alpha virt. eigenvalues --    1.11958   1.12007   1.12525   1.13317   1.14593
 Alpha virt. eigenvalues --    1.17029   1.19392   1.19817   1.20212   1.20354
 Alpha virt. eigenvalues --    1.21978   1.22804   1.26546   1.28177   1.31584
 Alpha virt. eigenvalues --    1.32319   1.34377   1.34876   1.35925   1.36458
 Alpha virt. eigenvalues --    1.40358   1.40665   1.41502   1.43356   1.46175
 Alpha virt. eigenvalues --    1.47858   1.48210   1.54884   1.55827   1.57664
 Alpha virt. eigenvalues --    1.59884   1.63665   1.65583   1.74034   1.76117
 Alpha virt. eigenvalues --    2.31997   2.34186   2.36460   2.38319   2.43783
 Alpha virt. eigenvalues --    2.47969   2.49415   2.49692   2.51663   2.53245
 Alpha virt. eigenvalues --    2.56994   2.59489   2.61897   2.62374   2.68265
 Alpha virt. eigenvalues --    2.68828   2.70901   2.73945   2.74525   2.75388
 Alpha virt. eigenvalues --    2.78731   2.81687   2.81757   2.88165   2.88709
 Alpha virt. eigenvalues --    2.91875   2.92205   2.93077   2.93471   2.94376
 Alpha virt. eigenvalues --    2.95662   2.96881   2.97699   3.02226   3.03003
 Alpha virt. eigenvalues --    3.04798   3.08261   3.10388   3.12310   3.13301
 Alpha virt. eigenvalues --    3.13355   3.13807   3.16030   3.18060   3.21346
 Alpha virt. eigenvalues --    3.23086   3.23455   3.23751   3.24850   3.27179
 Alpha virt. eigenvalues --    3.28611   3.31277   3.33819   3.34144   3.36827
 Alpha virt. eigenvalues --    3.39164   3.39624   3.41869   3.43933   3.45628
 Alpha virt. eigenvalues --    3.48828   3.48895   3.51210   3.58180   3.58367
 Alpha virt. eigenvalues --    3.59773   3.60173   3.60863   3.63139   3.64036
 Alpha virt. eigenvalues --    3.65289   3.68269   3.70247   3.71344   3.80529
 Alpha virt. eigenvalues --    3.81161   3.82469   3.83529   3.89252   3.91206
 Alpha virt. eigenvalues --    3.92951   3.93178   3.94043   3.96024   3.96807
 Alpha virt. eigenvalues --    3.98558   4.00396   4.02691   4.03439   4.04251
 Alpha virt. eigenvalues --    4.04817   4.10919   4.13042   4.13451   4.14046
 Alpha virt. eigenvalues --    4.15612   4.16727   4.17305   4.22509   4.22643
 Alpha virt. eigenvalues --    4.22881   4.23734   4.25519   4.26079   4.26293
 Alpha virt. eigenvalues --    4.27521   4.29873   4.30465   4.35558   4.39180
 Alpha virt. eigenvalues --    4.39726   4.41659   4.42232   4.42498   4.45007
 Alpha virt. eigenvalues --    4.49218   4.49927   4.50363   4.51845   4.58466
 Alpha virt. eigenvalues --    4.59646   4.64663   4.73881   4.74011   4.75053
 Alpha virt. eigenvalues --    4.83848   4.85118   4.85121   4.90592   4.97758
 Alpha virt. eigenvalues --    4.98601   4.99059   4.99145   4.99798   5.04594
 Alpha virt. eigenvalues --    5.05593   5.05696   5.07400   5.12920   5.13269
 Alpha virt. eigenvalues --    5.13884   5.24869   5.26798   5.35123   5.35936
 Alpha virt. eigenvalues --    5.36413   5.39688   5.39954   5.47279   5.48331
 Alpha virt. eigenvalues --    5.53034   5.53149   5.53740   5.53754   5.55540
 Alpha virt. eigenvalues --    5.57189   5.60765   5.61876   5.66110   5.67000
 Alpha virt. eigenvalues --    6.10875   6.11267   6.12375   6.12672   6.13586
 Alpha virt. eigenvalues --    6.15973  10.64915  10.67367  10.93048  10.96780
 Alpha virt. eigenvalues --   11.41356  12.02302  12.12183  13.60555  13.63368
 Alpha virt. eigenvalues --   15.96726  15.96741  15.98623  15.99022  16.04960
 Alpha virt. eigenvalues --   16.05386  16.18760  16.64947  16.64947  16.65476
 Alpha virt. eigenvalues --   16.65477  16.65845  16.65875  16.66440  16.66448
 Alpha virt. eigenvalues --   16.67464
  Beta  occ. eigenvalues -- -353.57549 -44.63471 -39.20050 -39.20048 -39.19949
  Beta  occ. eigenvalues --  -11.40841 -11.40839 -11.38681 -11.38681  -5.90743
  Beta  occ. eigenvalues --   -4.11887  -4.11872  -4.10919  -1.18478  -1.17629
  Beta  occ. eigenvalues --   -1.06524  -1.06360  -1.06325  -1.06130  -1.05127
  Beta  occ. eigenvalues --   -0.99168  -0.96455  -0.77173  -0.76708  -0.72062
  Beta  occ. eigenvalues --   -0.71588  -0.68188  -0.68028  -0.65850  -0.65639
  Beta  occ. eigenvalues --   -0.45245
  Beta virt. eigenvalues --   -0.34098  -0.08508  -0.08304  -0.08005  -0.00351
  Beta virt. eigenvalues --    0.04132   0.04595   0.05855   0.06049   0.06521
  Beta virt. eigenvalues --    0.07471   0.08271   0.08988   0.11214   0.11795
  Beta virt. eigenvalues --    0.13596   0.15542   0.17089   0.18894   0.21974
  Beta virt. eigenvalues --    0.23724   0.24500   0.25317   0.25576   0.26235
  Beta virt. eigenvalues --    0.26362   0.31121   0.34092   0.39467   0.41228
  Beta virt. eigenvalues --    0.44157   0.44488   0.44983   0.45389   0.46092
  Beta virt. eigenvalues --    0.46753   0.47260   0.49348   0.50777   0.51099
  Beta virt. eigenvalues --    0.51201   0.52179   0.53889   0.54091   0.55849
  Beta virt. eigenvalues --    0.58002   0.58888   0.59623   0.64231   0.64606
  Beta virt. eigenvalues --    0.70508   0.72631   0.74900   0.79042   0.79289
  Beta virt. eigenvalues --    0.80436   0.82524   0.85909   0.88337   0.88797
  Beta virt. eigenvalues --    0.90367   0.93475   0.94689   0.98051   0.98923
  Beta virt. eigenvalues --    1.01524   1.01717   1.07246   1.07511   1.09540
  Beta virt. eigenvalues --    1.10603   1.12196   1.12452   1.12868   1.13939
  Beta virt. eigenvalues --    1.15099   1.17917   1.19686   1.20091   1.20401
  Beta virt. eigenvalues --    1.20469   1.22232   1.23191   1.27001   1.29041
  Beta virt. eigenvalues --    1.32385   1.33474   1.34660   1.35199   1.36207
  Beta virt. eigenvalues --    1.37137   1.40767   1.41112   1.41784   1.43538
  Beta virt. eigenvalues --    1.46792   1.48346   1.48646   1.55330   1.56219
  Beta virt. eigenvalues --    1.58362   1.60246   1.63990   1.65957   1.74535
  Beta virt. eigenvalues --    1.76696   2.32244   2.34430   2.37021   2.39028
  Beta virt. eigenvalues --    2.44149   2.48379   2.49822   2.50086   2.51973
  Beta virt. eigenvalues --    2.53599   2.57359   2.60727   2.62848   2.63505
  Beta virt. eigenvalues --    2.68557   2.69183   2.71430   2.74398   2.75411
  Beta virt. eigenvalues --    2.76003   2.79367   2.82368   2.82589   2.89200
  Beta virt. eigenvalues --    2.89461   2.92157   2.93082   2.93349   2.93724
  Beta virt. eigenvalues --    2.94750   2.96085   2.97450   2.98093   3.02469
  Beta virt. eigenvalues --    3.03466   3.05181   3.08830   3.10684   3.12501
  Beta virt. eigenvalues --    3.13545   3.13938   3.14058   3.16404   3.18514
  Beta virt. eigenvalues --    3.21893   3.23353   3.23625   3.23923   3.25137
  Beta virt. eigenvalues --    3.27454   3.29434   3.32222   3.34371   3.34966
  Beta virt. eigenvalues --    3.37873   3.39829   3.40155   3.42502   3.44536
  Beta virt. eigenvalues --    3.46076   3.49012   3.49082   3.51530   3.58367
  Beta virt. eigenvalues --    3.58475   3.59905   3.60438   3.61101   3.63316
  Beta virt. eigenvalues --    3.64403   3.65624   3.68525   3.70475   3.71808
  Beta virt. eigenvalues --    3.80714   3.81531   3.82744   3.83956   3.89734
  Beta virt. eigenvalues --    3.91336   3.93129   3.93413   3.94283   3.96306
  Beta virt. eigenvalues --    3.97067   3.99093   4.00686   4.02900   4.03674
  Beta virt. eigenvalues --    4.04539   4.05206   4.11168   4.13620   4.14127
  Beta virt. eigenvalues --    4.14373   4.15921   4.16929   4.17509   4.22880
  Beta virt. eigenvalues --    4.22980   4.23231   4.24017   4.25813   4.26327
  Beta virt. eigenvalues --    4.26644   4.27660   4.30014   4.30617   4.35934
  Beta virt. eigenvalues --    4.39303   4.39815   4.41811   4.42336   4.42602
  Beta virt. eigenvalues --    4.45136   4.49496   4.50089   4.50561   4.51966
  Beta virt. eigenvalues --    4.58797   4.59951   4.64939   4.74483   4.74626
  Beta virt. eigenvalues --    4.75369   4.84110   4.85327   4.85328   4.91056
  Beta virt. eigenvalues --    4.98107   4.98753   4.99187   4.99272   5.00049
  Beta virt. eigenvalues --    5.04857   5.05733   5.05835   5.07667   5.13351
  Beta virt. eigenvalues --    5.13486   5.14125   5.25125   5.27196   5.35377
  Beta virt. eigenvalues --    5.36198   5.36930   5.39922   5.40380   5.47471
  Beta virt. eigenvalues --    5.48492   5.53205   5.53312   5.53998   5.54093
  Beta virt. eigenvalues --    5.55742   5.57445   5.60922   5.62031   5.66372
  Beta virt. eigenvalues --    5.67286   6.11092   6.11375   6.12627   6.12852
  Beta virt. eigenvalues --    6.13870   6.16299  10.64890  10.67344  10.93164
  Beta virt. eigenvalues --   10.96892  11.41986  12.02698  12.12571  13.60594
  Beta virt. eigenvalues --   13.63405  15.96356  15.96371  15.98623  15.99025
  Beta virt. eigenvalues --   16.05545  16.05969  16.19580  16.64842  16.64842
  Beta virt. eigenvalues --   16.65397  16.65398  16.65897  16.65929  16.66615
  Beta virt. eigenvalues --   16.66621  16.67684
          Condensed to atoms (all electrons):
               1          2          3          4          5          6
     1  Zn  28.430914   0.276868  -0.021637  -0.007578  -0.006699   0.005592
     2  C    0.276868   5.179324   0.308946   0.405717   0.406428  -0.022987
     3  C   -0.021637   0.308946   4.825119  -0.031163  -0.031380   0.403310
     4  H   -0.007578   0.405717  -0.031163   0.517189  -0.028914  -0.005664
     5  H   -0.006699   0.406428  -0.031380  -0.028914   0.514989  -0.005663
     6  H    0.005592  -0.022987   0.403310  -0.005664  -0.005663   0.506478
     7  H   -0.000129  -0.034713   0.418288  -0.004085   0.005187  -0.024238
     8  H   -0.000382  -0.035363   0.418131   0.005305  -0.004071  -0.024303
     9  C    0.276868  -0.031677   0.001808   0.000965   0.000909  -0.000093
    10  C   -0.021637   0.001808  -0.000069  -0.000086  -0.000144   0.000002
    11  H   -0.007578   0.000965  -0.000086  -0.000079  -0.000007   0.000004
    12  H   -0.006699   0.000909  -0.000144  -0.000007  -0.000036   0.000006
    13  H    0.005592  -0.000093   0.000002   0.000004   0.000006   0.000000
    14  H   -0.000129   0.000233  -0.000008  -0.000003  -0.000015   0.000000
    15  H   -0.000382   0.000254  -0.000008  -0.000014   0.000004   0.000000
               7          8          9         10         11         12
     1  Zn  -0.000129  -0.000382   0.276868  -0.021637  -0.007578  -0.006699
     2  C   -0.034713  -0.035363  -0.031677   0.001808   0.000965   0.000909
     3  C    0.418288   0.418131   0.001808  -0.000069  -0.000086  -0.000144
     4  H   -0.004085   0.005305   0.000965  -0.000086  -0.000079  -0.000007
     5  H    0.005187  -0.004071   0.000909  -0.000144  -0.000007  -0.000036
     6  H   -0.024238  -0.024303  -0.000093   0.000002   0.000004   0.000006
     7  H    0.552491  -0.035140   0.000233  -0.000008  -0.000003  -0.000015
     8  H   -0.035140   0.553881   0.000254  -0.000008  -0.000014   0.000004
     9  C    0.000233   0.000254   5.179324   0.308946   0.405717   0.406428
    10  C   -0.000008  -0.000008   0.308946   4.825119  -0.031163  -0.031380
    11  H   -0.000003  -0.000014   0.405717  -0.031163   0.517189  -0.028914
    12  H   -0.000015   0.000004   0.406428  -0.031380  -0.028914   0.514989
    13  H    0.000000   0.000000  -0.022987   0.403310  -0.005664  -0.005663
    14  H    0.000000   0.000000  -0.034713   0.418288  -0.004085   0.005187
    15  H    0.000000  -0.000005  -0.035363   0.418131   0.005305  -0.004071
              13         14         15
     1  Zn   0.005592  -0.000129  -0.000382
     2  C   -0.000093   0.000233   0.000254
     3  C    0.000002  -0.000008  -0.000008
     4  H    0.000004  -0.000003  -0.000014
     5  H    0.000006  -0.000015   0.000004
     6  H    0.000000   0.000000   0.000000
     7  H    0.000000   0.000000   0.000000
     8  H    0.000000   0.000000  -0.000005
     9  C   -0.022987  -0.034713  -0.035363
    10  C    0.403310   0.418288   0.418131
    11  H   -0.005664  -0.004085   0.005305
    12  H   -0.005663   0.005187  -0.004071
    13  H    0.506478  -0.024238  -0.024303
    14  H   -0.024238   0.552491  -0.035140
    15  H   -0.024303  -0.035140   0.553881
          Atomic-Atomic Spin Densities.
               1          2          3          4          5          6
     1  Zn   0.282844   0.064195  -0.010431   0.000866   0.000805   0.000475
     2  C    0.064195   0.169709  -0.007770   0.012103   0.011642  -0.006722
     3  C   -0.010431  -0.007770  -0.012123  -0.000325  -0.000222   0.012447
     4  H    0.000866   0.012103  -0.000325  -0.006027  -0.000827   0.000221
     5  H    0.000805   0.011642  -0.000222  -0.000827  -0.005869   0.000191
     6  H    0.000475  -0.006722   0.012447   0.000221   0.000191   0.040885
     7  H   -0.001162   0.000473   0.002301  -0.000014  -0.000157  -0.001248
     8  H   -0.001011   0.000495   0.002304  -0.000188  -0.000056  -0.001134
     9  C    0.064195   0.012806  -0.001092  -0.000892  -0.000896   0.000049
    10  C   -0.010431  -0.001092   0.000044   0.000070   0.000109  -0.000002
    11  H    0.000866  -0.000892   0.000070   0.000057   0.000028  -0.000003
    12  H    0.000805  -0.000896   0.000109   0.000028   0.000040  -0.000004
    13  H    0.000475   0.000049  -0.000002  -0.000003  -0.000004   0.000000
    14  H   -0.001162  -0.000162   0.000004   0.000015   0.000016   0.000000
    15  H   -0.001011  -0.000171   0.000007   0.000008   0.000025   0.000000
               7          8          9         10         11         12
     1  Zn  -0.001162  -0.001011   0.064195  -0.010431   0.000866   0.000805
     2  C    0.000473   0.000495   0.012806  -0.001092  -0.000892  -0.000896
     3  C    0.002301   0.002304  -0.001092   0.000044   0.000070   0.000109
     4  H   -0.000014  -0.000188  -0.000892   0.000070   0.000057   0.000028
     5  H   -0.000157  -0.000056  -0.000896   0.000109   0.000028   0.000040
     6  H   -0.001248  -0.001134   0.000049  -0.000002  -0.000003  -0.000004
     7  H    0.004784   0.000441  -0.000162   0.000004   0.000015   0.000016
     8  H    0.000441   0.004666  -0.000171   0.000007   0.000008   0.000025
     9  C   -0.000162  -0.000171   0.169709  -0.007770   0.012103   0.011642
    10  C    0.000004   0.000007  -0.007770  -0.012123  -0.000325  -0.000222
    11  H    0.000015   0.000008   0.012103  -0.000325  -0.006027  -0.000827
    12  H    0.000016   0.000025   0.011642  -0.000222  -0.000827  -0.005869
    13  H    0.000000   0.000000  -0.006722   0.012447   0.000221   0.000191
    14  H    0.000000   0.000000   0.000473   0.002301  -0.000014  -0.000157
    15  H    0.000000   0.000002   0.000495   0.002304  -0.000188  -0.000056
              13         14         15
     1  Zn   0.000475  -0.001162  -0.001011
     2  C    0.000049  -0.000162  -0.000171
     3  C   -0.000002   0.000004   0.000007
     4  H   -0.000003   0.000015   0.000008
     5  H   -0.000004   0.000016   0.000025
     6  H    0.000000   0.000000   0.000000
     7  H    0.000000   0.000000   0.000000
     8  H    0.000000   0.000000   0.000002
     9  C   -0.006722   0.000473   0.000495
    10  C    0.012447   0.002301   0.002304
    11  H    0.000221  -0.000014  -0.000188
    12  H    0.000191  -0.000157  -0.000056
    13  H    0.040885  -0.001248  -0.001134
    14  H   -0.001248   0.004784   0.000441
    15  H   -0.001134   0.000441   0.004666
 Mulliken charges and spin densities:
               1          2
     1  Zn   1.077018   0.390317
     2  C   -0.456619   0.253768
     3  C   -0.291109  -0.014680
     4  H    0.148412   0.005095
     5  H    0.149407   0.004824
     6  H    0.167555   0.045154
     7  H    0.122133   0.005292
     8  H    0.121711   0.005389
     9  C   -0.456619   0.253768
    10  C   -0.291109  -0.014680
    11  H    0.148412   0.005095
    12  H    0.149407   0.004824
    13  H    0.167555   0.045154
    14  H    0.122133   0.005292
    15  H    0.121711   0.005389
 Sum of Mulliken charges =   1.00000   1.00000
 Mulliken charges and spin densities with hydrogens summed into heavy atoms:
               1          2
     1  Zn   1.077018   0.390317
     2  C   -0.158800   0.263687
     3  C    0.120291   0.041155
     9  C   -0.158800   0.263687
    10  C    0.120291   0.041155
 Electronic spatial extent (au):  <R**2>=            939.5921
 Charge=              1.0000 electrons
 Dipole moment (field-independent basis, Debye):
    X=              0.0000    Y=              0.0000    Z=              0.1635  Tot=              0.1635
 Quadrupole moment (field-independent basis, Debye-Ang):
   XX=            -34.8166   YY=            -23.5579   ZZ=            -36.3327
   XY=              4.0177   XZ=              0.0000   YZ=              0.0000
 Traceless Quadrupole moment (field-independent basis, Debye-Ang):
   XX=             -3.2476   YY=              8.0112   ZZ=             -4.7636
   XY=              4.0177   XZ=              0.0000   YZ=              0.0000
 Octapole moment (field-independent basis, Debye-Ang**2):
  XXX=              0.0000  YYY=              0.0000  ZZZ=              3.8712  XYY=              0.0000
  XXY=              0.0000  XXZ=              0.7112  XZZ=              0.0000  YZZ=              0.0000
  YYZ=             -0.6818  XYZ=             -0.9800
 Hexadecapole moment (field-independent basis, Debye-Ang**3):
 XXXX=           -229.5975 YYYY=           -782.1190 ZZZZ=            -65.6216 XXXY=           -143.1832
 XXXZ=              0.0000 YYYX=           -105.3898 YYYZ=              0.0000 ZZZX=              0.0000
 ZZZY=              0.0000 XXYY=           -176.0860 XXZZ=            -46.9456 YYZZ=           -167.0402
 XXYZ=              0.0000 YYXZ=              0.0000 ZZXY=            -51.7040
 N-N= 3.207392817687D+02 E-N=-5.254004832954D+03  KE= 1.934731714838D+03
 Symmetry A    KE= 1.416059936026D+03
 Symmetry B    KE= 5.186717788116D+02
                          Isotropic Fermi Contact Couplings
        Atom                 a.u.       MegaHertz       Gauss      10(-4) cm-1
     1  Zn(67)             3.73629    1047.04354     373.61116     349.25613
     2  C(13)             -0.00182      -2.04998      -0.73149      -0.68380
     3  C(13)             -0.01392     -15.64425      -5.58226      -5.21836
     4  H(1)               0.00419      18.71147       6.67672       6.24148
     5  H(1)               0.00399      17.82287       6.35964       5.94507
     6  H(1)               0.02507     112.05078      39.98250      37.37612
     7  H(1)               0.00347      15.51611       5.53653       5.17562
     8  H(1)               0.00354      15.81723       5.64398       5.27606
     9  C(13)             -0.00182      -2.04998      -0.73149      -0.68380
    10  C(13)             -0.01392     -15.64425      -5.58226      -5.21836
    11  H(1)               0.00419      18.71147       6.67672       6.24148
    12  H(1)               0.00399      17.82287       6.35964       5.94507
    13  H(1)               0.02507     112.05078      39.98250      37.37612
    14  H(1)               0.00347      15.51611       5.53653       5.17562
    15  H(1)               0.00354      15.81723       5.64398       5.27606
 --------------------------------------------------------
       Center         ----  Spin Dipole Couplings  ----
                      3XX-RR        3YY-RR        3ZZ-RR
 --------------------------------------------------------
     1   Atom       -0.335547      0.668904     -0.333358
     2   Atom       -0.157352      0.323845     -0.166493
     3   Atom       -0.028306      0.053821     -0.025514
     4   Atom       -0.019176     -0.007195      0.026371
     5   Atom        0.001448     -0.007074      0.005627
     6   Atom       -0.005006      0.011734     -0.006728
     7   Atom        0.005483     -0.002963     -0.002520
     8   Atom       -0.000591     -0.002995      0.003587
     9   Atom       -0.157352      0.323845     -0.166493
    10   Atom       -0.028306      0.053821     -0.025514
    11   Atom       -0.019176     -0.007195      0.026371
    12   Atom        0.001448     -0.007074      0.005627
    13   Atom       -0.005006      0.011734     -0.006728
    14   Atom        0.005483     -0.002963     -0.002520
    15   Atom       -0.000591     -0.002995      0.003587
 --------------------------------------------------------
                        XY            XZ            YZ
 --------------------------------------------------------
     1   Atom        0.025475      0.000000      0.000000
     2   Atom       -0.058035     -0.002370      0.014899
     3   Atom        0.007231      0.000707     -0.001626
     4   Atom       -0.002182     -0.014274      0.002303
     5   Atom       -0.003106      0.026714     -0.001142
     6   Atom        0.000132     -0.000429     -0.000064
     7   Atom        0.004732      0.005546      0.001555
     8   Atom        0.003529     -0.006536     -0.003508
     9   Atom       -0.058035      0.002370     -0.014899
    10   Atom        0.007231     -0.000707      0.001626
    11   Atom       -0.002182      0.014274     -0.002303
    12   Atom       -0.003106     -0.026714      0.001142
    13   Atom        0.000132      0.000429      0.000064
    14   Atom        0.004732     -0.005546     -0.001555
    15   Atom        0.003529      0.006536      0.003508
 --------------------------------------------------------


 ---------------------------------------------------------------------------------
              Anisotropic Spin Dipole Couplings in Principal Axis System
 ---------------------------------------------------------------------------------

       Atom             a.u.   MegaHertz   Gauss  10(-4) cm-1        Axes

              Baa    -0.3362   -11.246    -4.013    -3.751  0.9997 -0.0253  0.0000
     1 Zn(67) Bbb    -0.3334   -11.151    -3.979    -3.720  0.0000  0.0000  1.0000
              Bcc     0.6695    22.397     7.992     7.471  0.0253  0.9997  0.0000
 
              Baa    -0.1671   -22.420    -8.000    -7.478  0.2081 -0.0051  0.9781
     2 C(13)  Bbb    -0.1641   -22.024    -7.859    -7.346  0.9710  0.1218 -0.2059
              Bcc     0.3312    44.444    15.859    14.825 -0.1181  0.9925  0.0303
 
              Baa    -0.0291    -3.910    -1.395    -1.304  0.9693 -0.0890 -0.2290
     3 C(13)  Bbb    -0.0253    -3.401    -1.214    -1.135  0.2298 -0.0010  0.9732
              Bcc     0.0545     7.311     2.609     2.439  0.0868  0.9960 -0.0195
 
              Baa    -0.0234   -12.492    -4.457    -4.167  0.9584  0.0905  0.2706
     4 H(1)   Bbb    -0.0073    -3.880    -1.384    -1.294 -0.0666  0.9931 -0.0963
              Bcc     0.0307    16.372     5.842     5.461 -0.2775  0.0742  0.9579
 
              Baa    -0.0234   -12.484    -4.455    -4.164  0.7344  0.0927 -0.6723
     5 H(1)   Bbb    -0.0072    -3.823    -1.364    -1.275 -0.0152  0.9926  0.1203
              Bcc     0.0306    16.308     5.819     5.440  0.6785 -0.0782  0.7304
 
              Baa    -0.0068    -3.644    -1.300    -1.215  0.2291  0.0017  0.9734
     6 H(1)   Bbb    -0.0049    -2.618    -0.934    -0.873  0.9734 -0.0086 -0.2290
              Bcc     0.0117     6.261     2.234     2.089  0.0080  1.0000 -0.0036
 
              Baa    -0.0059    -3.126    -1.115    -1.043 -0.5407  0.5354  0.6489
     7 H(1)   Bbb    -0.0043    -2.301    -0.821    -0.767 -0.0083  0.7679 -0.6405
              Bcc     0.0102     5.426     1.936     1.810  0.8412  0.3517  0.4107
 
              Baa    -0.0059    -3.136    -1.119    -1.046  0.7727 -0.5402  0.3334
     8 H(1)   Bbb    -0.0043    -2.304    -0.822    -0.768  0.2863  0.7653  0.5765
              Bcc     0.0102     5.440     1.941     1.815 -0.5665 -0.3500  0.7460
 
              Baa    -0.1671   -22.420    -8.000    -7.478 -0.2081  0.0051  0.9781
     9 C(13)  Bbb    -0.1641   -22.024    -7.859    -7.346  0.9710  0.1218  0.2059
              Bcc     0.3312    44.444    15.859    14.825 -0.1181  0.9925 -0.0303
 
              Baa    -0.0291    -3.910    -1.395    -1.304  0.9693 -0.0890  0.2290
    10 C(13)  Bbb    -0.0253    -3.401    -1.214    -1.135 -0.2298  0.0010  0.9732
              Bcc     0.0545     7.311     2.609     2.439  0.0868  0.9960  0.0195
 
              Baa    -0.0234   -12.492    -4.457    -4.167  0.9584  0.0905 -0.2706
    11 H(1)   Bbb    -0.0073    -3.880    -1.384    -1.294 -0.0666  0.9931  0.0963
              Bcc     0.0307    16.372     5.842     5.461  0.2775 -0.0742  0.9579
 
              Baa    -0.0234   -12.484    -4.455    -4.164  0.7344  0.0927  0.6723
    12 H(1)   Bbb    -0.0072    -3.823    -1.364    -1.275 -0.0152  0.9926 -0.1203
              Bcc     0.0306    16.308     5.819     5.440 -0.6785  0.0782  0.7304
 
              Baa    -0.0068    -3.644    -1.300    -1.215 -0.2291 -0.0017  0.9734
    13 H(1)   Bbb    -0.0049    -2.618    -0.934    -0.873  0.9734 -0.0086  0.2290
              Bcc     0.0117     6.261     2.234     2.089  0.0080  1.0000  0.0036
 
              Baa    -0.0059    -3.126    -1.115    -1.043  0.5407 -0.5354  0.6489
    14 H(1)   Bbb    -0.0043    -2.301    -0.821    -0.767 -0.0083  0.7679  0.6405
              Bcc     0.0102     5.426     1.936     1.810  0.8412  0.3517 -0.4107
 
              Baa    -0.0059    -3.136    -1.119    -1.046  0.7727 -0.5402 -0.3334
    15 H(1)   Bbb    -0.0043    -2.304    -0.822    -0.768  0.2863  0.7653 -0.5765
              Bcc     0.0102     5.440     1.941     1.815  0.5665  0.3500  0.7460
 

 ---------------------------------------------------------------------------------

 Range of M.O.s used for correlation:     1   328
 NBasis=   328 NAE=    32 NBE=    31 NFC=     0 NFV=     0
 NROrb=    328 NOA=    32 NOB=    31 NVA=   296 NVB=   297

 **** Warning!!: The largest alpha MO coefficient is  0.11592317D+02


 **** Warning!!: The largest beta MO coefficient is  0.11479130D+02

 Would need an additional            86600000 words for in-memory AO integral storage.
 Orbital symmetries:
 Alpha Orbitals:
       Occupied  (A) (A) (B) (A) (B) (B) (A) (A) (B) (A) (B) (B)
                 (A) (A) (B) (A) (B) (B) (A) (A) (B) (A) (A) (B)
                 (A) (B) (B) (A) (A) (B) (A) (B)
       Virtual   (B) (A) (A) (B) (A) (A) (B) (A) (A) (B) (B) (B)
                 (A) (A) (B) (A) (B) (A) (B) (A) (B) (A) (B) (B)
                 (A) (B) (A) (B) (A) (B) (A) (A) (B) (B) (B) (A)
                 (B) (A) (B) (A) (A) (A) (B) (A) (B) (A) (B) (A)
                 (B) (B) (A) (A) (B) (A) (B) (A) (B) (A) (B) (B)
                 (A) (B) (A) (B) (B) (A) (A) (B) (A) (B) (B) (A)
                 (B) (A) (A) (A) (B) (B) (B) (A) (B) (A) (A) (A)
                 (A) (B) (B) (A) (B) (A) (A) (B) (B) (A) (A) (B)
                 (B) (A) (A) (B) (B) (A) (B) (A) (B) (B) (A) (B)
                 (A) (A) (B) (A) (B) (A) (B) (A) (B) (B) (A) (A)
                 (B) (B) (A) (A) (B) (B) (A) (A) (A) (B) (B) (B)
                 (A) (B) (A) (B) (A) (A) (A) (B) (B) (B) (A) (A)
                 (B) (A) (B) (B) (A) (B) (A) (A) (B) (A) (B) (B)
                 (A) (B) (A) (A) (B) (A) (B) (B) (A) (A) (B) (A)
                 (A) (B) (A) (B) (A) (B) (A) (B) (B) (A) (B) (A)
                 (B) (B) (A) (A) (B) (A) (B) (B) (B) (A) (A) (A)
                 (B) (A) (B) (A) (A) (B) (A) (B) (B) (B) (A) (A)
                 (B) (A) (B) (A) (B) (A) (A) (B) (B) (A) (B) (A)
                 (A) (B) (A) (B) (B) (A) (A) (B) (A) (B) (B) (A)
                 (B) (A) (B) (A) (B) (A) (B) (A) (A) (B) (B) (A)
                 (A) (B) (B) (A) (B) (A) (B) (A) (A) (B) (B) (A)
                 (B) (B) (A) (B) (A) (A) (B) (B) (A) (A) (B) (A)
                 (B) (B) (A) (A) (B) (B) (A) (B) (A) (B) (A) (A)
                 (A) (B) (B) (A) (A) (B) (B) (A) (A) (B) (B) (A)
                 (B) (B) (A) (A) (B) (A) (B) (A)
 Beta  Orbitals:
       Occupied  (A) (A) (B) (A) (B) (B) (A) (B) (A) (A) (B) (A)
                 (B) (A) (B) (A) (B) (A) (B) (A) (B) (A) (A) (B)
                 (B) (A) (B) (A) (A) (B) (B)
       Virtual   (A) (B) (A) (A) (B) (A) (A) (B) (A) (B) (B) (A)
                 (B) (A) (A) (B) (A) (B) (A) (B) (A) (B) (B) (A)
                 (B) (A) (B) (A) (B) (A) (B) (A) (A) (B) (B) (B)
                 (A) (B) (A) (B) (A) (A) (B) (A) (A) (B) (A) (B)
                 (A) (B) (B) (A) (A) (A) (B) (B) (A) (B) (A) (B)
                 (B) (A) (B) (A) (B) (B) (A) (A) (B) (A) (B) (B)
                 (A) (B) (A) (A) (A) (B) (B) (B) (A) (B) (A) (A)
                 (A) (A) (B) (B) (A) (B) (A) (A) (B) (B) (A) (A)
                 (B) (B) (A) (A) (B) (B) (A) (B) (A) (B) (B) (A)
                 (B) (A) (A) (B) (A) (B) (A) (B) (A) (B) (B) (A)
                 (A) (B) (B) (A) (A) (B) (B) (A) (A) (A) (B) (B)
                 (B) (A) (B) (A) (B) (A) (A) (A) (B) (B) (B) (A)
                 (A) (B) (A) (B) (B) (A) (B) (A) (A) (B) (A) (B)
                 (B) (A) (B) (A) (A) (B) (A) (B) (B) (A) (A) (B)
                 (A) (A) (B) (A) (B) (A) (B) (A) (B) (B) (A) (B)
                 (A) (B) (B) (A) (A) (B) (A) (B) (B) (B) (A) (A)
                 (A) (B) (A) (B) (A) (A) (B) (A) (B) (B) (B) (A)
                 (A) (B) (A) (B) (A) (B) (A) (A) (B) (B) (A) (B)
                 (A) (A) (B) (A) (B) (B) (A) (A) (B) (A) (B) (B)
                 (A) (B) (A) (B) (A) (B) (A) (B) (A) (A) (B) (B)
                 (A) (A) (B) (B) (A) (B) (A) (B) (A) (A) (B) (B)
                 (A) (B) (B) (A) (B) (A) (A) (B) (B) (A) (A) (B)
                 (A) (B) (B) (A) (A) (B) (B) (A) (B) (A) (B) (A)
                 (A) (A) (B) (B) (A) (A) (B) (B) (A) (A) (B) (B)
                 (A) (B) (B) (A) (A) (B) (A) (B) (A)
    12 initial guesses have been made.
 Convergence on wavefunction:    0.001000000000000
 Iteration     1 Dimension    12 NMult     0 NNew     12
 CISAX will form    12 AO SS matrices at one time.
 Iteration     2 Dimension    24 NMult    12 NNew     12
 Iteration     3 Dimension    27 NMult    24 NNew      3
 Iteration     4 Dimension    30 NMult    27 NNew      3
 Iteration     5 Dimension    33 NMult    30 NNew      3
 Cease iterating as an instability has been found.
 ***********************************************************************
 Stability analysis using <AA,BB:AA,BB> singles matrix:
 ***********************************************************************

 Eigenvectors of the stability matrix:
 
 Eigenvector   1:  2.086-B    Eigenvalue=-0.1649591  <S**2>=0.838
     32A -> 35A       -0.13616
     32A -> 41A        0.10843
     25B -> 32B       -0.10270
     31B -> 32B        0.94043
 
 Eigenvector   2:  2.076-B    Eigenvalue= 0.0823817  <S**2>=0.827
     24B -> 32B       -0.31666
     30B -> 32B        0.91292
     31B -> 34B       -0.14065
 
 Eigenvector   3:  2.064-A    Eigenvalue= 0.0878703  <S**2>=0.815
     23B -> 32B       -0.25693
     26B -> 32B        0.15262
     28B -> 32B        0.47363
     29B -> 32B        0.79852
 SavETr:  write IOETrn=   770 NScale= 10 NData=  16 NLR=1 NState=    3 LETran=      64.
 The wavefunction has an internal instability.
 The two search directions are symmetric.
 Gradient too large for Newton-Raphson -- use scaled steepest descent instead.
 Gradient too large for Newton-Raphson -- use scaled steepest descent instead.
     Accept linear search using points  3 and  4.
 Gradient too large for Newton-Raphson -- use scaled steepest descent instead.
     Accept linear search using points  1 and  2.
     Minimum is close to point  2 DX= -2.70D-02 DF= -1.83D-06 DXR=  2.77D-02 DFR=  7.66D-04 which will be used.
 Gradient too large for Newton-Raphson -- use scaled steepest descent instead.
     Accept linear search using points  1 and  2.
 Gradient too large for Newton-Raphson -- use scaled steepest descent instead.
     Accept linear search using points  1 and  2.
 Gradient too large for Newton-Raphson -- use scaled steepest descent instead.
     Minimum is close to point  2 DX=  5.64D-02 DF= -3.29D-06 DXR=  5.90D-02 DFR=  3.49D-03 which will be used.
 Gradient too large for Newton-Raphson -- use scaled steepest descent instead.
     Minimum is close to point  2 DX=  5.29D-02 DF= -2.45D-06 DXR=  5.55D-02 DFR=  3.09D-03 which will be used.
 Gradient too large for Newton-Raphson -- use scaled steepest descent instead.
     Accept linear search using points  1 and  2.
     Minimum is close to point  2 DX= -4.29D-02 DF= -1.38D-06 DXR=  4.49D-02 DFR=  2.01D-03 which will be used.
 Gradient too large for Newton-Raphson -- use scaled steepest descent instead.
 Restarting incremental Fock formation.
     Accept linear search using points  1 and  2.
 Gradient too large for Newton-Raphson -- use scaled steepest descent instead.
 Gradient too large for Newton-Raphson -- use scaled steepest descent instead.
     Accept linear search using points  1 and  2.
 Gradient too large for Newton-Raphson -- use scaled steepest descent instead.
 Gradient too large for Newton-Raphson -- use scaled steepest descent instead.
     Accept linear search using points  1 and  2.
 Gradient too large for Newton-Raphson -- use scaled steepest descent instead.
 Gradient too large for Newton-Raphson -- use scaled steepest descent instead.
     Accept linear search using points  1 and  2.
 Gradient too large for Newton-Raphson -- use scaled steepest descent instead.
 Gradient too large for Newton-Raphson -- use scaled steepest descent instead.
 Restarting incremental Fock formation.
     Accept linear search using points  1 and  2.
 Gradient too large for Newton-Raphson -- use scaled steepest descent instead.
 Gradient too large for Newton-Raphson -- use scaled steepest descent instead.
     Accept linear search using points  1 and  2.
 Gradient too large for Newton-Raphson -- use scaled steepest descent instead.
 Gradient too large for Newton-Raphson -- use scaled steepest descent instead.
     Accept linear search using points  1 and  2.
 Gradient too large for Newton-Raphson -- use scaled steepest descent instead.
 Gradient too large for Newton-Raphson -- use scaled steepest descent instead.
     Accept linear search using points  1 and  2.
 Gradient too large for Newton-Raphson -- use scaled steepest descent instead.
 Gradient too large for Newton-Raphson -- use scaled steepest descent instead.
 Restarting incremental Fock formation.
     Accept linear search using points  1 and  2.
 LinEq1:  Iter=  0 NonCon=     1 RMS=7.83D-05 Max=9.63D-03 NDo=     1
 AX will form     1 AO Fock derivatives at one time.
 LinEq1:  Iter=  1 NonCon=     1 RMS=3.83D-05 Max=1.14D-03 NDo=     1
 LinEq1:  Iter=  2 NonCon=     1 RMS=5.81D-06 Max=3.30D-04 NDo=     1
 LinEq1:  Iter=  3 NonCon=     1 RMS=9.45D-07 Max=2.94D-05 NDo=     1
 LinEq1:  Iter=  4 NonCon=     1 RMS=3.37D-07 Max=7.40D-06 NDo=     1
 LinEq1:  Iter=  5 NonCon=     1 RMS=1.08D-07 Max=2.76D-06 NDo=     1
 LinEq1:  Iter=  6 NonCon=     1 RMS=3.73D-08 Max=1.00D-06 NDo=     1
 LinEq1:  Iter=  7 NonCon=     1 RMS=1.32D-08 Max=3.40D-07 NDo=     1
 LinEq1:  Iter=  8 NonCon=     0 RMS=4.66D-09 Max=1.12D-07 NDo=     1
 Linear equations converged to 1.367D-08 1.367D-07 after     8 iterations.
     Accept linear search using points  1 and  2.
 LinEq1:  Iter=  0 NonCon=     1 RMS=3.02D-05 Max=1.55D-03 NDo=     1
 LinEq1:  Iter=  1 NonCon=     1 RMS=1.15D-05 Max=7.72D-04 NDo=     1
 LinEq1:  Iter=  2 NonCon=     1 RMS=6.31D-06 Max=4.29D-04 NDo=     1
 LinEq1:  Iter=  3 NonCon=     1 RMS=4.05D-06 Max=2.19D-04 NDo=     1
 LinEq1:  Iter=  4 NonCon=     1 RMS=2.11D-06 Max=1.26D-04 NDo=     1
 LinEq1:  Iter=  5 NonCon=     1 RMS=5.04D-07 Max=1.32D-05 NDo=     1
 LinEq1:  Iter=  6 NonCon=     1 RMS=2.26D-07 Max=6.32D-06 NDo=     1
 LinEq1:  Iter=  7 NonCon=     1 RMS=5.80D-08 Max=1.20D-06 NDo=     1
 LinEq1:  Iter=  8 NonCon=     1 RMS=1.91D-08 Max=4.03D-07 NDo=     1
 LinEq1:  Iter=  9 NonCon=     1 RMS=4.88D-09 Max=1.57D-07 NDo=     1
 LinEq1:  Iter= 10 NonCon=     0 RMS=1.04D-09 Max=1.57D-08 NDo=     1
 Linear equations converged to 1.367D-08 1.367D-07 after    10 iterations.
     Minimum is close to point  2 DX=  4.14D-02 DF= -5.23D-08 DXR=  3.98D-02 DFR=  1.59D-03 which will be used.
 LinEq1:  Iter=  0 NonCon=     1 RMS=8.55D-07 Max=8.09D-05 NDo=     1
 LinEq1:  Iter=  1 NonCon=     1 RMS=3.31D-07 Max=2.76D-05 NDo=     1
 LinEq1:  Iter=  2 NonCon=     1 RMS=1.42D-07 Max=6.66D-06 NDo=     1
 LinEq1:  Iter=  3 NonCon=     1 RMS=4.92D-08 Max=2.16D-06 NDo=     1
 LinEq1:  Iter=  4 NonCon=     1 RMS=3.42D-08 Max=7.83D-07 NDo=     1
 LinEq1:  Iter=  5 NonCon=     1 RMS=1.27D-08 Max=3.31D-07 NDo=     1
 LinEq1:  Iter=  6 NonCon=     1 RMS=4.56D-09 Max=1.56D-07 NDo=     1
 LinEq1:  Iter=  7 NonCon=     1 RMS=1.33D-09 Max=3.45D-08 NDo=     1
 LinEq1:  Iter=  8 NonCon=     0 RMS=4.09D-10 Max=8.30D-09 NDo=     1
 Linear equations converged to 8.366D-10 8.366D-09 after     8 iterations.
 LinEq1:  Iter=  0 NonCon=     1 RMS=1.12D-08 Max=2.91D-07 NDo=     1
 LinEq1:  Iter=  1 NonCon=     1 RMS=5.45D-09 Max=2.86D-07 NDo=     1
 LinEq1:  Iter=  2 NonCon=     1 RMS=1.93D-09 Max=9.95D-08 NDo=     1
 LinEq1:  Iter=  3 NonCon=     1 RMS=1.50D-09 Max=1.20D-07 NDo=     1
 LinEq1:  Iter=  4 NonCon=     1 RMS=8.33D-10 Max=5.56D-08 NDo=     1
 LinEq1:  Iter=  5 NonCon=     1 RMS=3.26D-10 Max=9.12D-09 NDo=     1
 LinEq1:  Iter=  6 NonCon=     1 RMS=1.15D-10 Max=3.21D-09 NDo=     1
 LinEq1:  Iter=  7 NonCon=     1 RMS=4.40D-11 Max=1.80D-09 NDo=     1
 LinEq1:  Iter=  8 NonCon=     0 RMS=1.66D-11 Max=3.80D-10 NDo=     1
 Linear equations converged to 4.841D-11 4.841D-10 after     8 iterations.
 SCF Done:  E(UHF) =  -1934.87276988     a.u. after   30 cycles
            Convg  =    0.1582D-06                   113 Fock formations.
              S**2 =  0.8626                  -V/T =  2.0000
 <Sx>= 0.0000 <Sy>= 0.0000 <Sz>= 0.5000 <S**2>= 0.8626 S= 0.5548
 <L.S>= 0.000000000000E+00
 Annihilation of the first spin contaminant:
 S**2 before annihilation     0.8626,   after     0.7518
 Range of M.O.s used for correlation:     1   328
 NBasis=   328 NAE=    32 NBE=    31 NFC=     0 NFV=     0
 NROrb=    328 NOA=    32 NOB=    31 NVA=   296 NVB=   297

 **** Warning!!: The largest alpha MO coefficient is  0.11098206D+02


 **** Warning!!: The largest beta MO coefficient is  0.11365609D+02

 Would need an additional            86600000 words for in-memory AO integral storage.
 Orbital symmetries:
 Alpha Orbitals:
       Occupied  (A) (A) (B) (A) (B) (B) (A) (A) (B) (A) (B) (B)
                 (A) (A) (B) (A) (B) (A) (B) (A) (B) (A) (A) (B)
                 (A) (B) (B) (A) (A) (B) (A) (B)
       Virtual   (A) (B) (A) (B) (A) (A) (A) (B) (B) (A) (B) (B)
                 (A) (A) (B) (A) (B) (A) (B) (A) (B) (B) (A) (A)
                 (B) (B) (A) (B) (A) (B) (A) (A) (B) (B) (B) (A)
                 (B) (A) (A) (B) (A) (B) (A) (A) (B) (A) (B) (A)
                 (B) (B) (A) (A) (B) (A) (B) (A) (B) (B) (A) (B)
                 (A) (B) (A) (B) (B) (A) (A) (B) (A) (B) (A) (B)
                 (B) (A) (A) (A) (B) (B) (B) (A) (B) (A) (A) (A)
                 (A) (B) (B) (A) (B) (A) (A) (B) (B) (A) (A) (B)
                 (B) (A) (A) (B) (B) (A) (B) (A) (B) (B) (A) (B)
                 (A) (A) (B) (A) (B) (A) (B) (A) (B) (B) (A) (A)
                 (B) (B) (A) (A) (B) (A) (B) (A) (A) (B) (B) (B)
                 (A) (B) (A) (B) (A) (A) (A) (B) (B) (B) (A) (A)
                 (A) (B) (B) (B) (A) (B) (A) (A) (B) (A) (B) (B)
                 (A) (B) (A) (A) (B) (A) (B) (B) (A) (A) (B) (A)
                 (A) (B) (A) (B) (A) (B) (A) (B) (B) (A) (B) (A)
                 (B) (B) (A) (A) (B) (A) (B) (B) (B) (A) (A) (A)
                 (B) (A) (B) (A) (A) (B) (B) (B) (A) (A) (B) (A)
                 (B) (A) (B) (A) (B) (A) (A) (B) (B) (A) (B) (A)
                 (A) (B) (A) (B) (B) (A) (A) (B) (A) (B) (B) (A)
                 (A) (B) (B) (A) (B) (A) (B) (A) (A) (B) (B) (A)
                 (A) (B) (B) (B) (A) (A) (B) (A) (A) (B) (B) (A)
                 (B) (B) (A) (B) (A) (A) (B) (B) (A) (A) (B) (A)
                 (B) (B) (A) (A) (B) (B) (A) (B) (A) (B) (A) (A)
                 (A) (B) (B) (A) (A) (B) (B) (A) (A) (B) (B) (A)
                 (B) (B) (A) (A) (B) (A) (B) (A)
 Beta  Orbitals:
       Occupied  (A) (A) (B) (A) (B) (A) (B) (A) (B) (A) (B) (A)
                 (B) (A) (B) (A) (B) (B) (A) (A) (B) (A) (A) (B)
                 (A) (B) (B) (A) (A) (B) (A)
       Virtual   (B) (B) (A) (A) (B) (A) (A) (B) (A) (B) (B) (B)
                 (A) (A) (A) (B) (A) (B) (A) (B) (A) (B) (B) (A)
                 (B) (A) (B) (A) (B) (A) (B) (A) (A) (B) (B) (A)
                 (B) (B) (A) (B) (A) (A) (B) (A) (A) (B) (A) (B)
                 (A) (B) (B) (A) (A) (A) (B) (B) (A) (B) (A) (B)
                 (B) (A) (B) (A) (B) (B) (A) (A) (B) (A) (B) (B)
                 (A) (B) (A) (A) (A) (B) (B) (A) (B) (B) (A) (A)
                 (A) (A) (B) (B) (A) (B) (A) (A) (B) (B) (A) (A)
                 (B) (B) (A) (A) (B) (B) (A) (B) (A) (B) (B) (A)
                 (B) (A) (A) (B) (A) (B) (A) (B) (A) (B) (B) (A)
                 (A) (B) (B) (A) (A) (B) (B) (A) (A) (A) (B) (B)
                 (B) (A) (B) (A) (B) (A) (A) (A) (B) (B) (B) (A)
                 (A) (B) (A) (B) (B) (A) (B) (A) (A) (B) (A) (B)
                 (B) (A) (B) (A) (A) (B) (A) (B) (B) (A) (A) (B)
                 (A) (A) (B) (A) (B) (A) (B) (A) (B) (B) (A) (B)
                 (A) (B) (B) (A) (A) (B) (A) (B) (B) (B) (A) (A)
                 (A) (B) (A) (B) (A) (A) (B) (B) (B) (A) (A) (B)
                 (A) (B) (A) (B) (A) (B) (A) (A) (B) (B) (A) (B)
                 (A) (A) (B) (A) (B) (B) (A) (A) (B) (A) (B) (B)
                 (A) (A) (B) (B) (A) (B) (A) (B) (A) (A) (B) (B)
[...]
 Alpha virt. eigenvalues --    0.24149   0.24949   0.25058   0.25757   0.25929
 Alpha virt. eigenvalues --    0.29928   0.31688   0.38502   0.40997   0.42856
 Alpha virt. eigenvalues --    0.43210   0.43740   0.44609   0.45151   0.45449
 Alpha virt. eigenvalues --    0.46659   0.48252   0.49745   0.50727   0.50928
 Alpha virt. eigenvalues --    0.51720   0.53533   0.53843   0.54967   0.56696
 Alpha virt. eigenvalues --    0.58464   0.58924   0.63285   0.63757   0.70303
 Alpha virt. eigenvalues --    0.72313   0.74239   0.78122   0.78664   0.80185
 Alpha virt. eigenvalues --    0.82378   0.85270   0.88389   0.88756   0.89079
 Alpha virt. eigenvalues --    0.93136   0.94438   0.97348   0.99021   1.01005
 Alpha virt. eigenvalues --    1.01312   1.06519   1.06743   1.08616   1.09776
 Alpha virt. eigenvalues --    1.11475   1.11617   1.12096   1.13015   1.14047
 Alpha virt. eigenvalues --    1.16695   1.19042   1.19393   1.19863   1.19913
 Alpha virt. eigenvalues --    1.21554   1.22614   1.26360   1.28068   1.31472
 Alpha virt. eigenvalues --    1.31806   1.33577   1.34322   1.35594   1.36281
 Alpha virt. eigenvalues --    1.39993   1.40172   1.41348   1.42855   1.45737
 Alpha virt. eigenvalues --    1.47539   1.48016   1.54136   1.55423   1.57141
 Alpha virt. eigenvalues --    1.59488   1.63465   1.65393   1.73434   1.75267
 Alpha virt. eigenvalues --    2.31485   2.33722   2.35478   2.37850   2.42741
 Alpha virt. eigenvalues --    2.47315   2.48513   2.48944   2.51136   2.53031
 Alpha virt. eigenvalues --    2.56786   2.57902   2.60172   2.61247   2.67284
 Alpha virt. eigenvalues --    2.68052   2.69764   2.72878   2.73866   2.74502
 Alpha virt. eigenvalues --    2.80445   2.81597   2.84401   2.86982   2.87890
 Alpha virt. eigenvalues --    2.91008   2.91213   2.92484   2.92991   2.94072
 Alpha virt. eigenvalues --    2.96586   2.97002   2.97704   3.01202   3.02328
 Alpha virt. eigenvalues --    3.04002   3.07682   3.10063   3.11507   3.12912
 Alpha virt. eigenvalues --    3.12949   3.13458   3.15160   3.17301   3.20282
 Alpha virt. eigenvalues --    3.22157   3.22942   3.23146   3.25082   3.26398
 Alpha virt. eigenvalues --    3.27328   3.29400   3.32408   3.32434   3.35648
 Alpha virt. eigenvalues --    3.38021   3.38533   3.40615   3.42872   3.44844
 Alpha virt. eigenvalues --    3.48719   3.48847   3.50255   3.57367   3.57939
 Alpha virt. eigenvalues --    3.59468   3.59781   3.60550   3.62384   3.63545
 Alpha virt. eigenvalues --    3.64927   3.67593   3.69546   3.70218   3.79997
 Alpha virt. eigenvalues --    3.80064   3.81720   3.82225   3.88778   3.90991
 Alpha virt. eigenvalues --    3.92500   3.92537   3.93343   3.95584   3.96333
 Alpha virt. eigenvalues --    3.98106   3.99894   4.02395   4.03112   4.03782
 Alpha virt. eigenvalues --    4.04136   4.10466   4.13302   4.14469   4.15542
 Alpha virt. eigenvalues --    4.15996   4.18963   4.19021   4.21588   4.23086
 Alpha virt. eigenvalues --    4.23218   4.23998   4.25703   4.26819   4.27449
 Alpha virt. eigenvalues --    4.27684   4.29753   4.30056   4.34848   4.39353
 Alpha virt. eigenvalues --    4.40358   4.41651   4.41734   4.42322   4.46032
 Alpha virt. eigenvalues --    4.48685   4.49524   4.50176   4.51245   4.57668
 Alpha virt. eigenvalues --    4.59143   4.64737   4.74447   4.77201   4.77275
 Alpha virt. eigenvalues --    4.83269   4.84048   4.84242   4.89888   4.97048
 Alpha virt. eigenvalues --    4.98187   4.98657   4.98724   4.99647   5.03852
 Alpha virt. eigenvalues --    5.04722   5.04822   5.06635   5.12364   5.13068
 Alpha virt. eigenvalues --    5.13515   5.24136   5.26807   5.34209   5.35015
 Alpha virt. eigenvalues --    5.37083   5.39568   5.40592   5.46535   5.47624
 Alpha virt. eigenvalues --    5.52901   5.53002   5.53112   5.53468   5.55646
 Alpha virt. eigenvalues --    5.57110   5.60060   5.61169   5.65097   5.65982
 Alpha virt. eigenvalues --    6.09854   6.10959   6.12296   6.12354   6.13230
 Alpha virt. eigenvalues --    6.14678  10.68884  10.71321  10.96542  11.00211
 Alpha virt. eigenvalues --   11.44537  12.00461  12.10197  13.60317  13.63133
 Alpha virt. eigenvalues --   16.00610  16.00625  16.02452  16.02852  16.08782
 Alpha virt. eigenvalues --   16.09201  16.22534  16.69148  16.69148  16.69370
 Alpha virt. eigenvalues --   16.69371  16.69581  16.69612  16.70104  16.70112
 Alpha virt. eigenvalues --   16.71105
  Beta  occ. eigenvalues -- -353.53864 -44.59930 -39.16303 -39.16294 -39.15910
  Beta  occ. eigenvalues --  -11.42905 -11.42904 -11.38972 -11.38972  -5.87702
  Beta  occ. eigenvalues --   -4.07936  -4.07924  -4.07524  -1.18484  -1.17757
  Beta  occ. eigenvalues --   -1.03886  -1.02562  -1.02366  -1.02360  -1.02230
  Beta  occ. eigenvalues --   -0.99169  -0.97043  -0.78012  -0.77455  -0.72672
  Beta  occ. eigenvalues --   -0.72402  -0.68824  -0.68724  -0.66462  -0.66242
  Beta  occ. eigenvalues --   -0.52818
  Beta virt. eigenvalues --   -0.22924  -0.09274  -0.09152  -0.06592  -0.00431
  Beta virt. eigenvalues --    0.04021   0.04310   0.05470   0.05824   0.06336
  Beta virt. eigenvalues --    0.07422   0.08989   0.09487   0.11161   0.11581
  Beta virt. eigenvalues --    0.13313   0.15200   0.17149   0.19199   0.22146
  Beta virt. eigenvalues --    0.23453   0.24335   0.25059   0.25435   0.26437
  Beta virt. eigenvalues --    0.26747   0.31229   0.34344   0.39600   0.41059
  Beta virt. eigenvalues --    0.43933   0.44218   0.44919   0.45646   0.46059
  Beta virt. eigenvalues --    0.47026   0.47475   0.49154   0.50661   0.51092
  Beta virt. eigenvalues --    0.51148   0.52033   0.53736   0.54292   0.55677
  Beta virt. eigenvalues --    0.58196   0.58543   0.59770   0.64154   0.64469
  Beta virt. eigenvalues --    0.70593   0.72782   0.74986   0.78764   0.79121
  Beta virt. eigenvalues --    0.80263   0.82564   0.86147   0.88984   0.89153
  Beta virt. eigenvalues --    0.90686   0.93461   0.94715   0.98068   0.99088
  Beta virt. eigenvalues --    1.01170   1.01492   1.06917   1.07397   1.09189
  Beta virt. eigenvalues --    1.10187   1.11934   1.12202   1.12602   1.13752
  Beta virt. eigenvalues --    1.14852   1.18057   1.19427   1.19821   1.20083
  Beta virt. eigenvalues --    1.20149   1.21899   1.23250   1.26780   1.29224
  Beta virt. eigenvalues --    1.32382   1.33802   1.34238   1.34945   1.35966
  Beta virt. eigenvalues --    1.37153   1.40633   1.40946   1.41601   1.43182
  Beta virt. eigenvalues --    1.46603   1.48174   1.48566   1.54914   1.55895
  Beta virt. eigenvalues --    1.58170   1.60082   1.63812   1.65821   1.74090
  Beta virt. eigenvalues --    1.76076   2.31740   2.33991   2.36365   2.38759
  Beta virt. eigenvalues --    2.43390   2.47852   2.49117   2.49502   2.51487
  Beta virt. eigenvalues --    2.53387   2.57053   2.60242   2.62238   2.63353
  Beta virt. eigenvalues --    2.67794   2.68606   2.70777   2.73777   2.75430
  Beta virt. eigenvalues --    2.75581   2.81511   2.81912   2.84473   2.88852
  Beta virt. eigenvalues --    2.89213   2.91495   2.92753   2.92853   2.93267
  Beta virt. eigenvalues --    2.94591   2.96800   2.97543   2.98162   3.01787
  Beta virt. eigenvalues --    3.03009   3.04625   3.08487   3.10368   3.11863
  Beta virt. eigenvalues --    3.13270   3.13714   3.13753   3.15923   3.18181
  Beta virt. eigenvalues --    3.21377   3.22596   3.23111   3.23374   3.25275
  Beta virt. eigenvalues --    3.26779   3.28786   3.31461   3.33624   3.34154
  Beta virt. eigenvalues --    3.37451   3.39217   3.39527   3.41861   3.43987
  Beta virt. eigenvalues --    3.45554   3.48883   3.49001   3.50685   3.57604
  Beta virt. eigenvalues --    3.58076   3.59613   3.60088   3.60788   3.62614
  Beta virt. eigenvalues --    3.64006   3.65298   3.68034   3.69954   3.71046
  Beta virt. eigenvalues --    3.80228   3.80801   3.82088   3.83098   3.89342
  Beta virt. eigenvalues --    3.91148   3.92710   3.92928   3.93697   3.95911
  Beta virt. eigenvalues --    3.96670   3.98829   4.00243   4.02621   4.03394
  Beta virt. eigenvalues --    4.04117   4.04606   4.10841   4.13881   4.14676
  Beta virt. eigenvalues --    4.15888   4.16131   4.18868   4.18908   4.22277
  Beta virt. eigenvalues --    4.23524   4.23592   4.24222   4.26134   4.26889
  Beta virt. eigenvalues --    4.27491   4.27728   4.29872   4.30270   4.35355
  Beta virt. eigenvalues --    4.39486   4.40490   4.41718   4.41804   4.42374
  Beta virt. eigenvalues --    4.46127   4.49032   4.49791   4.50276   4.51400
  Beta virt. eigenvalues --    4.58267   4.59723   4.65106   4.74837   4.77166
  Beta virt. eigenvalues --    4.77294   4.83649   4.84441   4.84640   4.90560
  Beta virt. eigenvalues --    4.97580   4.98365   4.98842   4.98913   4.99981
  Beta virt. eigenvalues --    5.04203   5.05009   5.05111   5.07037   5.12714
  Beta virt. eigenvalues --    5.13389   5.13769   5.24491   5.27102   5.34634
  Beta virt. eigenvalues --    5.35443   5.37384   5.39750   5.41103   5.46746
  Beta virt. eigenvalues --    5.47790   5.53055   5.53158   5.53402   5.53838
  Beta virt. eigenvalues --    5.55802   5.57318   5.60298   5.61403   5.65537
  Beta virt. eigenvalues --    5.66462   6.10280   6.11074   6.12473   6.12486
  Beta virt. eigenvalues --    6.13468   6.15183  10.68827  10.71268  10.96623
  Beta virt. eigenvalues --   11.00298  11.44854  12.01375  12.11121  13.60332
  Beta virt. eigenvalues --   13.63148  16.00428  16.00444  16.02501  16.02902
  Beta virt. eigenvalues --   16.09068  16.09489  16.22926  16.69124  16.69124
  Beta virt. eigenvalues --   16.69369  16.69370  16.69610  16.69641  16.70158
  Beta virt. eigenvalues --   16.70165  16.71171
          Condensed to atoms (all electrons):
               1          2          3          4          5          6
     1  Zn  28.819287   0.220948  -0.027006  -0.011199  -0.010617   0.005787
     2  C    0.220948   5.088183   0.321287   0.414419   0.414509  -0.022148
     3  C   -0.027006   0.321287   4.809517  -0.031477  -0.031518   0.407047
     4  H   -0.011199   0.414419  -0.031477   0.501975  -0.029924  -0.004520
     5  H   -0.010617   0.414509  -0.031518  -0.029924   0.500678  -0.004577
     6  H    0.005787  -0.022148   0.407047  -0.004520  -0.004577   0.506037
     7  H   -0.002662  -0.031720   0.418046  -0.004070   0.004886  -0.024496
     8  H   -0.002681  -0.032310   0.417869   0.004959  -0.004108  -0.024366
     9  C    0.220948  -0.007129  -0.000122  -0.000331  -0.000398  -0.000003
    10  C   -0.027006  -0.000122   0.000004   0.000025   0.000030  -0.000001
    11  H   -0.011199  -0.000331   0.000025   0.000008   0.000034  -0.000001
    12  H   -0.010617  -0.000398   0.000030   0.000034   0.000024  -0.000001
    13  H    0.005787  -0.000003  -0.000001  -0.000001  -0.000001   0.000000
    14  H   -0.002662  -0.000028  -0.000001   0.000021   0.000010   0.000000
    15  H   -0.002681  -0.000024   0.000003  -0.000002   0.000041   0.000000
               7          8          9         10         11         12
     1  Zn  -0.002662  -0.002681   0.220948  -0.027006  -0.011199  -0.010617
     2  C   -0.031720  -0.032310  -0.007129  -0.000122  -0.000331  -0.000398
     3  C    0.418046   0.417869  -0.000122   0.000004   0.000025   0.000030
     4  H   -0.004070   0.004959  -0.000331   0.000025   0.000008   0.000034
     5  H    0.004886  -0.004108  -0.000398   0.000030   0.000034   0.000024
     6  H   -0.024496  -0.024366  -0.000003  -0.000001  -0.000001  -0.000001
     7  H    0.547815  -0.032444  -0.000028  -0.000001   0.000021   0.000010
     8  H   -0.032444   0.548915  -0.000024   0.000003  -0.000002   0.000041
     9  C   -0.000028  -0.000024   5.088183   0.321287   0.414419   0.414509
    10  C   -0.000001   0.000003   0.321287   4.809517  -0.031477  -0.031518
    11  H    0.000021  -0.000002   0.414419  -0.031477   0.501975  -0.029924
    12  H    0.000010   0.000041   0.414509  -0.031518  -0.029924   0.500678
    13  H    0.000000   0.000000  -0.022148   0.407047  -0.004520  -0.004577
    14  H    0.000000   0.000001  -0.031720   0.418046  -0.004070   0.004886
    15  H    0.000001  -0.000002  -0.032310   0.417869   0.004959  -0.004108
              13         14         15
     1  Zn   0.005787  -0.002662  -0.002681
     2  C   -0.000003  -0.000028  -0.000024
     3  C   -0.000001  -0.000001   0.000003
     4  H   -0.000001   0.000021  -0.000002
     5  H   -0.000001   0.000010   0.000041
     6  H    0.000000   0.000000   0.000000
     7  H    0.000000   0.000000   0.000001
     8  H    0.000000   0.000001  -0.000002
     9  C   -0.022148  -0.031720  -0.032310
    10  C    0.407047   0.418046   0.417869
    11  H   -0.004520  -0.004070   0.004959
    12  H   -0.004577   0.004886  -0.004108
    13  H    0.506037  -0.024496  -0.024366
    14  H   -0.024496   0.547815  -0.032444
    15  H   -0.024366  -0.032444   0.548915
          Atomic-Atomic Spin Densities.
               1          2          3          4          5          6
     1  Zn  -0.424493   0.049935   0.006822   0.009472   0.009703  -0.001569
     2  C    0.049935   0.597362  -0.021445   0.004340   0.004385  -0.009003
     3  C    0.006822  -0.021445  -0.025433   0.001232   0.001206   0.009630
     4  H    0.009472   0.004340   0.001232  -0.016707   0.001384  -0.000509
     5  H    0.009703   0.004385   0.001206   0.001384  -0.017061  -0.000483
     6  H   -0.001569  -0.009003   0.009630  -0.000509  -0.000483   0.044341
     7  H    0.001978  -0.001711   0.001537   0.000156  -0.000137  -0.001688
     8  H    0.001912  -0.001755   0.001586  -0.000127   0.000156  -0.001752
     9  C    0.049935  -0.011406   0.000630   0.000130   0.000123  -0.000036
    10  C    0.006822   0.000630  -0.000024  -0.000031  -0.000047   0.000001
    11  H    0.009472   0.000130  -0.000031  -0.000027  -0.000014   0.000001
    12  H    0.009703   0.000123  -0.000047  -0.000014  -0.000019   0.000002
    13  H   -0.001569  -0.000036   0.000001   0.000001   0.000002   0.000000
    14  H    0.001978   0.000043  -0.000002  -0.000008  -0.000009   0.000000
    15  H    0.001912   0.000055  -0.000003  -0.000004  -0.000013   0.000000
               7          8          9         10         11         12
     1  Zn   0.001978   0.001912   0.049935   0.006822   0.009472   0.009703
     2  C   -0.001711  -0.001755  -0.011406   0.000630   0.000130   0.000123
     3  C    0.001537   0.001586   0.000630  -0.000024  -0.000031  -0.000047
     4  H    0.000156  -0.000127   0.000130  -0.000031  -0.000027  -0.000014
     5  H   -0.000137   0.000156   0.000123  -0.000047  -0.000014  -0.000019
     6  H   -0.001688  -0.001752  -0.000036   0.000001   0.000001   0.000002
     7  H    0.004267   0.000210   0.000043  -0.000002  -0.000008  -0.000009
     8  H    0.000210   0.004385   0.000055  -0.000003  -0.000004  -0.000013
     9  C    0.000043   0.000055   0.597362  -0.021445   0.004340   0.004385
    10  C   -0.000002  -0.000003  -0.021445  -0.025433   0.001232   0.001206
    11  H   -0.000008  -0.000004   0.004340   0.001232  -0.016707   0.001384
    12  H   -0.000009  -0.000013   0.004385   0.001206   0.001384  -0.017061
    13  H    0.000000   0.000000  -0.009003   0.009630  -0.000509  -0.000483
    14  H    0.000000   0.000000  -0.001711   0.001537   0.000156  -0.000137
    15  H    0.000000  -0.000001  -0.001755   0.001586  -0.000127   0.000156
              13         14         15
     1  Zn  -0.001569   0.001978   0.001912
     2  C   -0.000036   0.000043   0.000055
     3  C    0.000001  -0.000002  -0.000003
     4  H    0.000001  -0.000008  -0.000004
     5  H    0.000002  -0.000009  -0.000013
     6  H    0.000000   0.000000   0.000000
     7  H    0.000000   0.000000   0.000000
     8  H    0.000000   0.000000  -0.000001
     9  C   -0.009003  -0.001711  -0.001755
    10  C    0.009630   0.001537   0.001586
    11  H   -0.000509   0.000156  -0.000127
    12  H   -0.000483  -0.000137   0.000156
    13  H    0.044341  -0.001688  -0.001752
    14  H   -0.001688   0.004267   0.000210
    15  H   -0.001752   0.000210   0.004385
 Mulliken charges and spin densities:
               1          2
     1  Zn   0.835574  -0.267986
     2  C   -0.365133   0.611647
     3  C   -0.283704  -0.024340
     4  H    0.160083  -0.000711
     5  H    0.160932  -0.000824
     6  H    0.161242   0.038936
     7  H    0.124643   0.004636
     8  H    0.124149   0.004650
     9  C   -0.365133   0.611647
    10  C   -0.283704  -0.024340
    11  H    0.160083  -0.000711
    12  H    0.160932  -0.000824
    13  H    0.161242   0.038936
    14  H    0.124643   0.004636
    15  H    0.124149   0.004650
 Sum of Mulliken charges =   1.00000   1.00000
 Mulliken charges and spin densities with hydrogens summed into heavy atoms:
               1          2
     1  Zn   0.835574  -0.267986
     2  C   -0.044117   0.610112
     3  C    0.126330   0.023881
     9  C   -0.044117   0.610112
    10  C    0.126330   0.023881
 Electronic spatial extent (au):  <R**2>=            936.9391
 Charge=              1.0000 electrons
 Dipole moment (field-independent basis, Debye):
    X=              0.0000    Y=              0.0000    Z=              0.1647  Tot=              0.1647
 Quadrupole moment (field-independent basis, Debye-Ang):
   XX=            -34.9331   YY=            -19.5179   ZZ=            -36.6877
   XY=              3.7625   XZ=              0.0000   YZ=              0.0000
 Traceless Quadrupole moment (field-independent basis, Debye-Ang):
   XX=             -4.5535   YY=             10.8617   ZZ=             -6.3081
   XY=              3.7625   XZ=              0.0000   YZ=              0.0000
 Octapole moment (field-independent basis, Debye-Ang**2):
  XXX=              0.0000  YYY=              0.0000  ZZZ=              3.7438  XYY=              0.0000
  XXY=              0.0000  XXZ=              0.4223  XZZ=              0.0000  YZZ=              0.0000
  YYZ=             -0.1179  XYZ=             -1.1089
 Hexadecapole moment (field-independent basis, Debye-Ang**3):
 XXXX=           -227.0553 YYYY=           -755.1181 ZZZZ=            -66.3105 XXXY=           -140.8169
 XXXZ=              0.0000 YYYX=           -107.8583 YYYZ=              0.0000 ZZZX=              0.0000
 ZZZY=              0.0000 XXYY=           -170.7978 XXZZ=            -46.7137 YYZZ=           -163.1003
 XXYZ=              0.0000 YYXZ=              0.0000 ZZXY=            -51.6937
 N-N= 3.207392817687D+02 E-N=-5.254907681654D+03  KE= 1.934851348645D+03
 Symmetry A    KE= 1.417737238209D+03
 Symmetry B    KE= 5.171141104362D+02
 1\1\GINC-GAMBA\SP\UCCSD(T)-FC\Gen\C4H10Zn1(1+,2)\IRIKURA\19-May-2017\0
 \\# CCSD(T,maxcyc=100)/chkbas gfinput geom=check scf=xqc guess=check\\
 BEB step 8: low-spin CCSD(T) for cation of ZnEt2, using stabilized UHF
  reference\\1,2\Zn,0,0.,0.,0.092059\C,0,0.,1.933945,0.090127\C,0,1.360
 973,2.577345,-0.233751\H,0,-0.346594,2.294125,1.069841\H,0,-0.75069,2.
 294418,-0.628225\H,0,1.311324,3.675407,-0.22301\H,0,2.134924,2.28887,0
 .488877\H,0,1.727459,2.287037,-1.226622\C,0,0.,-1.933945,0.090127\C,0,
 -1.360973,-2.577345,-0.233751\H,0,0.346594,-2.294125,1.069841\H,0,0.75
 069,-2.294418,-0.628225\H,0,-1.311324,-3.675407,-0.22301\H,0,-2.134924
 ,-2.28887,0.488877\H,0,-1.727459,-2.287037,-1.226622\\Version=ES64L-G0
 9RevD.01\State=2-B\HF=-1934.8727699\MP2=-1936.087357\MP3=-1936.0681995
 \MP4D=-1936.1051767\MP4DQ=-1936.0882594\PUHF=-1934.8835045\PMP2-0=-193
 6.0957726\PMP3-0=-1936.073473\MP4SDQ=-1936.1022093\CCSD=-1936.0932217\
 CCSD(T)=-1936.1391712\S2=0.862647\S2-1=0.813507\S2A=0.751816\RMSD=3.36
 0e-10\PG=C02 [C2(Zn1),X(C4H10)]\\@


 "WHERE SHALL I START, PLEASE YOUR MAJESTY?" HE ASKED.
 "BEGIN AT THE BEGINNING," THE KING SAID GRAVELY,
 "AND GO ON TILL YOU COME TO THE END: THEN STOP." 

                                      -- LEWIS CARROLL
 Job cpu time:       1 days 10 hours  6 minutes 34.0 seconds.
 File lengths (MBytes):  RWF=  12376 Int=      0 D2E=      0 Chk=     17 Scr=      1
 Normal termination of Gaussian 09 at Fri May 19 14:24:04 2017.
