 Entering Gaussian System, Link 0=g09
 Initial command:
 /usr/local/apps/g09/l1.exe "/wrk/irikura/Gau-24826.inp" -scrdir="/wrk/irikura/"
 Entering Link 1 = /usr/local/apps/g09/l1.exe PID=     24828.
  
 Copyright (c) 1988,1990,1992,1993,1995,1998,2003,2009,2013,
            Gaussian, Inc.  All Rights Reserved.
  
 This is part of the Gaussian(R) 09 program.  It is based on
 the Gaussian(R) 03 system (copyright 2003, Gaussian, Inc.),
 the Gaussian(R) 98 system (copyright 1998, Gaussian, Inc.),
 the Gaussian(R) 94 system (copyright 1995, Gaussian, Inc.),
 the Gaussian 92(TM) system (copyright 1992, Gaussian, Inc.),
 the Gaussian 90(TM) system (copyright 1990, Gaussian, Inc.),
 the Gaussian 88(TM) system (copyright 1988, Gaussian, Inc.),
 the Gaussian 86(TM) system (copyright 1986, Carnegie Mellon
 University), and the Gaussian 82(TM) system (copyright 1983,
 Carnegie Mellon University). Gaussian is a federally registered
 trademark of Gaussian, Inc.
  
 This software contains proprietary and confidential information,
 including trade secrets, belonging to Gaussian, Inc.
  
 This software is provided under written license and may be
 used, copied, transmitted, or stored only in accord with that
 written license.
  
 The following legend is applicable only to US Government
 contracts under FAR:
  
                    RESTRICTED RIGHTS LEGEND
  
 Use, reproduction and disclosure by the US Government is
 subject to restrictions as set forth in subparagraphs (a)
 and (c) of the Commercial Computer Software - Restricted
 Rights clause in FAR 52.227-19.
  
 Gaussian, Inc.
 340 Quinnipiac St., Bldg. 40, Wallingford CT 06492
  
  
 ---------------------------------------------------------------
 Warning -- This program may not be used in any manner that
 competes with the business of Gaussian, Inc. or will provide
 assistance to any competitor of Gaussian, Inc.  The licensee
 of this program is prohibited from giving any competitor of
 Gaussian, Inc. access to this program.  By using this program,
 the user acknowledges that Gaussian, Inc. is engaged in the
 business of creating and licensing software in the field of
 computational chemistry and represents and warrants to the
 licensee that it is not a competitor of Gaussian, Inc. and that
 it will not use this program in any manner prohibited above.
 ---------------------------------------------------------------
  

 Cite this work as:
 Gaussian 09, Revision D.01,
 M. J. Frisch, G. W. Trucks, H. B. Schlegel, G. E. Scuseria, 
 M. A. Robb, J. R. Cheeseman, G. Scalmani, V. Barone, B. Mennucci, 
 G. A. Petersson, H. Nakatsuji, M. Caricato, X. Li, H. P. Hratchian, 
 A. F. Izmaylov, J. Bloino, G. Zheng, J. L. Sonnenberg, M. Hada, 
 M. Ehara, K. Toyota, R. Fukuda, J. Hasegawa, M. Ishida, T. Nakajima, 
 Y. Honda, O. Kitao, H. Nakai, T. Vreven, J. A. Montgomery, Jr., 
 J. E. Peralta, F. Ogliaro, M. Bearpark, J. J. Heyd, E. Brothers, 
 K. N. Kudin, V. N. Staroverov, T. Keith, R. Kobayashi, J. Normand, 
 K. Raghavachari, A. Rendell, J. C. Burant, S. S. Iyengar, J. Tomasi, 
 M. Cossi, N. Rega, J. M. Millam, M. Klene, J. E. Knox, J. B. Cross, 
 V. Bakken, C. Adamo, J. Jaramillo, R. Gomperts, R. E. Stratmann, 
 O. Yazyev, A. J. Austin, R. Cammi, C. Pomelli, J. W. Ochterski, 
 R. L. Martin, K. Morokuma, V. G. Zakrzewski, G. A. Voth, 
 P. Salvador, J. J. Dannenberg, S. Dapprich, A. D. Daniels, 
 O. Farkas, J. B. Foresman, J. V. Ortiz, J. Cioslowski, 
 and D. J. Fox, Gaussian, Inc., Wallingford CT, 2013.
 
 ******************************************
 Gaussian 09:  ES64L-G09RevD.01 24-Apr-2013
                19-May-2017 
 ******************************************
 %chk=ZnEt2.chk
 %nprocs=8
 Will use up to    8 processors via shared memory.
 %mem=2000mw
 ---------------------------------------------------
 # CCSD(T,maxcyc=100)/GEN gfinput geom=check scf=xqc
 ---------------------------------------------------
 1/29=2,38=1/1;
 2/12=2,40=1/2;
 3/5=7,11=9,14=-4,16=1,24=10,25=1,30=1/1,2,3;
 4//1;
 5/5=2,8=3,13=1,38=5/2,8;
 8/6=4,9=120000,10=1/1,4;
 9/5=7,6=100,14=2/13;
 6/7=2,8=2,9=2,10=2/1;
 99/5=1,9=1/99;
 ---------------------------------------------------
 BEB step 10: low-spin CCSD(T) for dication of ZnEt2
 ---------------------------------------------------
 Structure from the checkpoint file:  "ZnEt2.chk"
 Charge =  2 Multiplicity = 1
 Redundant internal coordinates found in file.
 Zn,0,0.,0.,0.092059
 C,0,0.,1.933945,0.090127
 C,0,1.360973,2.577345,-0.233751
 H,0,-0.346594,2.294125,1.069841
 H,0,-0.75069,2.294418,-0.628225
 H,0,1.311324,3.675407,-0.22301
 H,0,2.134924,2.28887,0.488877
 H,0,1.727459,2.287037,-1.226622
 C,0,0.,-1.933945,0.090127
 C,0,-1.360973,-2.577345,-0.233751
 H,0,0.346594,-2.294125,1.069841
 H,0,0.75069,-2.294418,-0.628225
 H,0,-1.311324,-3.675407,-0.22301
 H,0,-2.134924,-2.28887,0.488877
 H,0,-1.727459,-2.287037,-1.226622
 Recover connectivity data from disk.
                          Input orientation:                          
 ---------------------------------------------------------------------
 Center     Atomic      Atomic             Coordinates (Angstroms)
 Number     Number       Type             X           Y           Z
 ---------------------------------------------------------------------
      1         30           0        0.000000    0.000000    0.092059
      2          6           0        0.000000    1.933945    0.090127
      3          6           0        1.360973    2.577345   -0.233751
      4          1           0       -0.346594    2.294125    1.069841
      5          1           0       -0.750690    2.294418   -0.628225
      6          1           0        1.311324    3.675407   -0.223010
      7          1           0        2.134924    2.288870    0.488877
      8          1           0        1.727459    2.287037   -1.226622
      9          6           0        0.000000   -1.933945    0.090127
     10          6           0       -1.360973   -2.577345   -0.233751
     11          1           0        0.346594   -2.294125    1.069841
     12          1           0        0.750690   -2.294418   -0.628225
     13          1           0       -1.311324   -3.675407   -0.223010
     14          1           0       -2.134924   -2.288870    0.488877
     15          1           0       -1.727459   -2.287037   -1.226622
 ---------------------------------------------------------------------
                    Distance matrix (angstroms):
                    1          2          3          4          5
     1  Zn   0.000000
     2  C    1.933946   0.000000
     3  C    2.932764   1.539840   0.000000
     4  H    2.517776   1.099862   2.166876   0.000000
     5  H    2.519265   1.099775   2.166744   1.745486   0.000000
     6  H    3.915029   2.202343   1.099236   2.515571   2.514604
     7  H    3.155042   2.200653   1.097456   2.548623   3.094304
     8  H    3.154928   2.200595   1.097444   3.094429   2.549383
     9  C    1.933946   3.867890   4.723228   4.353911   4.354150
    10  C    2.932764   4.723228   5.829221   5.143883   4.925660
    11  H    2.517776   4.353911   5.143883   4.640318   5.014199
    12  H    2.519265   4.354150   4.925660   5.014199   4.828204
    13  H    3.915029   5.769095   6.799867   6.183646   6.009769
    14  H    3.155042   4.748586   6.035191   4.953735   4.916355
    15  H    3.154928   4.747066   5.846915   5.307313   4.722487
                    6          7          8          9         10
     6  H    0.000000
     7  H    1.762834   0.000000
     8  H    1.762945   1.763227   0.000000
     9  C    5.769095   4.748586   4.747066   0.000000
    10  C    6.799867   6.035191   5.846915   1.539840   0.000000
    11  H    6.183646   4.953735   5.307313   1.099862   2.166876
    12  H    6.009769   4.916355   4.722487   1.099775   2.166744
    13  H    7.804662   6.925028   6.766992   2.202343   1.099236
    14  H    6.925028   6.259976   6.228954   2.200653   1.097456
    15  H    6.766992   6.228954   5.732243   2.200595   1.097444
                   11         12         13         14         15
    11  H    0.000000
    12  H    1.745486   0.000000
    13  H    2.515571   2.514604   0.000000
    14  H    2.548623   3.094304   1.762834   0.000000
    15  H    3.094429   2.549383   1.762945   1.763227   0.000000
 Stoichiometry    C4H10Zn(2+)
 Framework group  C2[C2(Zn),X(C4H10)]
 Deg. of freedom    20
 Full point group                 C2      NOp   2
 Largest Abelian subgroup         C2      NOp   2
 Largest concise Abelian subgroup C2      NOp   2
                         Standard orientation:                         
 ---------------------------------------------------------------------
 Center     Atomic      Atomic             Coordinates (Angstroms)
 Number     Number       Type             X           Y           Z
 ---------------------------------------------------------------------
      1         30           0        0.000000    0.000000    0.092059
      2          6           0        0.000000    1.933945    0.090127
      3          6           0        1.360973    2.577345   -0.233751
      4          1           0       -0.346594    2.294125    1.069841
      5          1           0       -0.750690    2.294418   -0.628225
      6          1           0        1.311324    3.675407   -0.223010
      7          1           0        2.134924    2.288870    0.488877
      8          1           0        1.727459    2.287037   -1.226622
      9          6           0        0.000000   -1.933945    0.090127
     10          6           0       -1.360973   -2.577345   -0.233751
     11          1           0        0.346594   -2.294125    1.069841
     12          1           0        0.750690   -2.294418   -0.628225
     13          1           0       -1.311324   -3.675407   -0.223010
     14          1           0       -2.134924   -2.288870    0.488877
     15          1           0       -1.727459   -2.287037   -1.226622
 ---------------------------------------------------------------------
 Rotational constants (GHZ):     14.6723335      1.3797086      1.3187032
 General basis read from cards:  (5D, 7F)
 AO basis set in the form of general basis input (Overlap normalization):
      1 0
 S  14 1.00       0.000000000000
      0.5820021000D+07  0.8542885478D-05
      0.8715234000D+06  0.6642467562D-04
      0.1983350000D+06  0.3492362619D-03
      0.5617631000D+05  0.1472734312D-02
      0.1832582000D+05  0.5334339797D-02
      0.6614955000D+04  0.1711415094D-01
      0.2579199000D+04  0.4890302932D-01
      0.1068849000D+04  0.1216940687D+00
      0.4651045000D+03  0.2474323562D+00
      0.2104130000D+03  0.3578277267D+00
      0.9761629000D+02  0.2793442886D+00
      0.4438020000D+02  0.6868263222D-01
      0.1030891000D+02  0.3221701162D-02
      0.4553645000D+01 -0.7817474491D-03
 S  11 1.00       0.000000000000
      0.1832582000D+05 -0.6322839183D-05
      0.6614955000D+04 -0.6785222718D-04
      0.2579199000D+04 -0.5492543552D-03
      0.1068849000D+04 -0.3394157516D-02
      0.4651045000D+03 -0.1667671016D-01
      0.2104130000D+03 -0.5842591737D-01
      0.9761629000D+02 -0.1043750636D+00
      0.4438020000D+02  0.6355596026D-01
      0.2142308000D+02  0.5002009850D+00
      0.1030891000D+02  0.4781904256D+00
      0.4553645000D+01  0.8587611250D-01
 S  10 1.00       0.000000000000
      0.1832582000D+05 -0.8548270921D-06
      0.2579199000D+04 -0.1228626536D-04
      0.4651045000D+03 -0.1407868226D-03
      0.9761629000D+02 -0.4495773745D-03
      0.2142308000D+02 -0.6128804275D-02
      0.1030891000D+02  0.4154271565D-01
      0.4553645000D+01 -0.2894462579D+00
      0.2132821000D+01 -0.9361090165D-01
      0.9296970000D+00  0.1377489710D+01
      0.1921470000D+00 -0.1362868603D+01
 S   8 1.00       0.000000000000
      0.4651045000D+03 -0.7160119717D-05
      0.9761629000D+02 -0.2253209183D-04
      0.2142308000D+02 -0.1194939508D-02
      0.4553645000D+01 -0.1518081215D-01
      0.2132821000D+01  0.4513884670D-01
      0.9296970000D+00  0.2683958730D+00
      0.1921470000D+00 -0.4736441984D+00
      0.8759500000D-01 -0.6770952844D+00
 S  11 1.00       0.000000000000
      0.1832582000D+05  0.5609979057D-05
      0.6614955000D+04 -0.2573925820D-05
      0.2579199000D+04  0.7815859322D-04
      0.4651045000D+03  0.9576420082D-03
      0.2104130000D+03  0.7011261585D-03
      0.9761629000D+02  0.6552647950D-02
      0.4438020000D+02 -0.8815197364D-02
      0.2142308000D+02 -0.2453803490D-01
      0.1030891000D+02 -0.1203210329D+00
      0.4553645000D+01  0.1524538980D+00
      0.1921470000D+00  0.9781229693D+00
 S  11 1.00       0.000000000000
      0.1832582000D+05 -0.8564366277D-05
      0.6614955000D+04  0.3681138252D-05
      0.2579199000D+04 -0.1202612026D-03
      0.4651045000D+03 -0.1371070220D-02
      0.9761629000D+02 -0.5254556873D-02
      0.4438020000D+02  0.1268610915D-01
      0.2142308000D+02 -0.9696597388D-01
      0.1030891000D+02 -0.1771136145D+00
      0.4553645000D+01  0.1664222468D+00
      0.2132821000D+01  0.1003959530D+01
      0.1921470000D+00 -0.8141051538D+00
 S   1 1.00       0.000000000000
      0.3770200000D-01  0.1000000000D+01
 P  11 1.00       0.000000000000
      0.2441198000D+05  0.4105114657D-04
      0.5778518000D+04  0.3614546896D-03
      0.1876862000D+04  0.2090656696D-02
      0.7182361000D+03  0.9232712648D-02
      0.3048327000D+03  0.3281554506D-01
      0.1390453000D+03  0.9430366596D-01
      0.6680417000D+02  0.2094234333D+00
      0.3320699000D+02  0.3350550786D+00
      0.1692816000D+02  0.3308607794D+00
      0.8696229000D+01  0.1521709559D+00
      0.4350510000D+01  0.2172615146D-01
 P  10 1.00       0.000000000000
      0.5778518000D+04 -0.8877851708D-05
      0.7182361000D+03 -0.2441030315D-03
      0.3048327000D+03 -0.5407590074D-04
      0.1390453000D+03 -0.3043274181D-02
      0.6680417000D+02 -0.5430271958D-03
      0.3320699000D+02 -0.1903663998D-01
      0.1692816000D+02  0.2539021175D-01
      0.8696229000D+01 -0.3141338769D-01
      0.4350510000D+01 -0.2816228848D-01
      0.9953870000D+00  0.1020816268D+01
 P   9 1.00       0.000000000000
      0.7182361000D+03  0.2668890615D-05
      0.3048327000D+03 -0.3374783888D-05
      0.6680417000D+02 -0.1584306381D-03
      0.1692816000D+02  0.9899985402D-03
      0.4350510000D+01 -0.2699464774D-01
      0.2116523000D+01 -0.1249115445D-01
      0.9953870000D+00  0.7256894641D-01
      0.3781120000D+00  0.3829943468D+00
      0.1345790000D+00  0.6530286935D+00
 P   9 1.00       0.000000000000
      0.7182361000D+03  0.9390726746D-05
      0.3048327000D+03 -0.1185545227D-04
      0.6680417000D+02 -0.5108126233D-03
      0.1692816000D+02  0.3945575099D-02
      0.8696229000D+01  0.5580351718D-02
      0.4350510000D+01 -0.8244475427D-01
      0.2116523000D+01  0.9105007379D-02
      0.9953870000D+00  0.3337692793D+00
      0.3781120000D+00  0.7431532920D+00
 P  10 1.00       0.000000000000
      0.5778518000D+04 -0.7802763863D-05
      0.7182361000D+03 -0.1693919350D-03
      0.3048327000D+03  0.3159389680D-03
      0.6680417000D+02  0.1017184620D-01
      0.3320699000D+02  0.1254561776D-01
      0.1692816000D+02  0.5085111829D-01
      0.8696229000D+01 -0.1745632491D+00
      0.4350510000D+01 -0.5575487626D+00
      0.2116523000D+01 -0.6695223776D+00
      0.9953870000D+00  0.4927371878D+00
 P   1 1.00       0.000000000000
      0.4628200000D-01  0.1000000000D+01
 D   5 1.00       0.000000000000
      0.6144981000D+02 -0.1627069828D-02
      0.2305689000D+02 -0.5645739998D-02
      0.9577739000D+01 -0.7107323650D-01
      0.4133734000D+01  0.2883883047D+00
      0.1747518000D+01  0.8015717485D+00
 D   5 1.00       0.000000000000
      0.6144981000D+02 -0.9057168371D-03
      0.9577739000D+01 -0.2245656133D-01
      0.4133734000D+01  0.1050357490D+00
      0.1747518000D+01 -0.8282428294D-01
      0.6995600000D+00 -0.9692942320D+00
 D   5 1.00       0.000000000000
      0.2056177000D+03  0.4818927105D-02
      0.6144981000D+02  0.3917234290D-01
      0.2305689000D+02  0.1635410151D+00
      0.9577739000D+01  0.4643636076D+00
      0.4133734000D+01  0.4884185612D+00
 D   1 1.00       0.000000000000
      0.2516080000D+00  0.1000000000D+01
 F   1 1.00       0.000000000000
      0.5792200000D+01  0.1000000000D+01
 F   1 1.00       0.000000000000
      0.1485100000D+01  0.1000000000D+01
 G   1 1.00       0.000000000000
      0.4114400000D+01  0.1000000000D+01
 ****
      2 0
 S   7 1.00       0.000000000000
      0.8236000000D+04  0.5419783203D-03
      0.1235000000D+04  0.4192873817D-02
      0.2808000000D+03  0.2152216205D-01
      0.7927000000D+02  0.8353432195D-01
      0.2559000000D+02  0.2395828457D+00
      0.8997000000D+01  0.4428528419D+00
      0.3319000000D+01  0.3517995618D+00
 S   6 1.00       0.000000000000
      0.2808000000D+03 -0.5949224937D-04
      0.7927000000D+02 -0.1148158310D-02
      0.2559000000D+02 -0.1001913745D-01
      0.8997000000D+01 -0.6121949230D-01
      0.3319000000D+01 -0.1732698541D+00
      0.3643000000D+00  0.1072915192D+01
 S   1 1.00       0.000000000000
      0.9059000000D+00  0.1000000000D+01
 S   1 1.00       0.000000000000
      0.1285000000D+00  0.1000000000D+01
 P   3 1.00       0.000000000000
      0.1871000000D+02  0.3942638716D-01
      0.4133000000D+01  0.2440889849D+00
      0.1200000000D+01  0.8154920089D+00
 P   1 1.00       0.000000000000
      0.3827000000D+00  0.1000000000D+01
 P   1 1.00       0.000000000000
      0.1209000000D+00  0.1000000000D+01
 D   1 1.00       0.000000000000
      0.1097000000D+01  0.1000000000D+01
 D   1 1.00       0.000000000000
      0.3180000000D+00  0.1000000000D+01
 F   1 1.00       0.000000000000
      0.7610000000D+00  0.1000000000D+01
 ****
      3 0
 S   7 1.00       0.000000000000
      0.8236000000D+04  0.5419783203D-03
      0.1235000000D+04  0.4192873817D-02
      0.2808000000D+03  0.2152216205D-01
      0.7927000000D+02  0.8353432195D-01
      0.2559000000D+02  0.2395828457D+00
      0.8997000000D+01  0.4428528419D+00
      0.3319000000D+01  0.3517995618D+00
 S   6 1.00       0.000000000000
      0.2808000000D+03 -0.5949224937D-04
      0.7927000000D+02 -0.1148158310D-02
      0.2559000000D+02 -0.1001913745D-01
      0.8997000000D+01 -0.6121949230D-01
      0.3319000000D+01 -0.1732698541D+00
      0.3643000000D+00  0.1072915192D+01
 S   1 1.00       0.000000000000
      0.9059000000D+00  0.1000000000D+01
 S   1 1.00       0.000000000000
      0.1285000000D+00  0.1000000000D+01
 P   3 1.00       0.000000000000
      0.1871000000D+02  0.3942638716D-01
      0.4133000000D+01  0.2440889849D+00
      0.1200000000D+01  0.8154920089D+00
 P   1 1.00       0.000000000000
      0.3827000000D+00  0.1000000000D+01
 P   1 1.00       0.000000000000
      0.1209000000D+00  0.1000000000D+01
 D   1 1.00       0.000000000000
      0.1097000000D+01  0.1000000000D+01
 D   1 1.00       0.000000000000
      0.3180000000D+00  0.1000000000D+01
 F   1 1.00       0.000000000000
      0.7610000000D+00  0.1000000000D+01
 ****
      4 0
 S   3 1.00       0.000000000000
      0.3387000000D+02  0.2549486323D-01
      0.5095000000D+01  0.1903627659D+00
      0.1159000000D+01  0.8521620222D+00
 S   1 1.00       0.000000000000
      0.3258000000D+00  0.1000000000D+01
 S   1 1.00       0.000000000000
      0.1027000000D+00  0.1000000000D+01
 P   1 1.00       0.000000000000
      0.1407000000D+01  0.1000000000D+01
 P   1 1.00       0.000000000000
      0.3880000000D+00  0.1000000000D+01
 D   1 1.00       0.000000000000
      0.1057000000D+01  0.1000000000D+01
 ****
      5 0
 S   3 1.00       0.000000000000
      0.3387000000D+02  0.2549486323D-01
      0.5095000000D+01  0.1903627659D+00
      0.1159000000D+01  0.8521620222D+00
 S   1 1.00       0.000000000000
      0.3258000000D+00  0.1000000000D+01
 S   1 1.00       0.000000000000
      0.1027000000D+00  0.1000000000D+01
 P   1 1.00       0.000000000000
      0.1407000000D+01  0.1000000000D+01
 P   1 1.00       0.000000000000
      0.3880000000D+00  0.1000000000D+01
 D   1 1.00       0.000000000000
      0.1057000000D+01  0.1000000000D+01
 ****
      6 0
 S   3 1.00       0.000000000000
      0.3387000000D+02  0.2549486323D-01
      0.5095000000D+01  0.1903627659D+00
      0.1159000000D+01  0.8521620222D+00
 S   1 1.00       0.000000000000
      0.3258000000D+00  0.1000000000D+01
 S   1 1.00       0.000000000000
      0.1027000000D+00  0.1000000000D+01
 P   1 1.00       0.000000000000
      0.1407000000D+01  0.1000000000D+01
 P   1 1.00       0.000000000000
      0.3880000000D+00  0.1000000000D+01
 D   1 1.00       0.000000000000
      0.1057000000D+01  0.1000000000D+01
 ****
      7 0
 S   3 1.00       0.000000000000
      0.3387000000D+02  0.2549486323D-01
      0.5095000000D+01  0.1903627659D+00
      0.1159000000D+01  0.8521620222D+00
 S   1 1.00       0.000000000000
      0.3258000000D+00  0.1000000000D+01
 S   1 1.00       0.000000000000
      0.1027000000D+00  0.1000000000D+01
 P   1 1.00       0.000000000000
      0.1407000000D+01  0.1000000000D+01
 P   1 1.00       0.000000000000
      0.3880000000D+00  0.1000000000D+01
 D   1 1.00       0.000000000000
      0.1057000000D+01  0.1000000000D+01
 ****
      8 0
 S   3 1.00       0.000000000000
      0.3387000000D+02  0.2549486323D-01
      0.5095000000D+01  0.1903627659D+00
      0.1159000000D+01  0.8521620222D+00
 S   1 1.00       0.000000000000
      0.3258000000D+00  0.1000000000D+01
 S   1 1.00       0.000000000000
      0.1027000000D+00  0.1000000000D+01
 P   1 1.00       0.000000000000
      0.1407000000D+01  0.1000000000D+01
 P   1 1.00       0.000000000000
      0.3880000000D+00  0.1000000000D+01
 D   1 1.00       0.000000000000
      0.1057000000D+01  0.1000000000D+01
 ****
      9 0
 S   7 1.00       0.000000000000
      0.8236000000D+04  0.5419783203D-03
      0.1235000000D+04  0.4192873817D-02
      0.2808000000D+03  0.2152216205D-01
      0.7927000000D+02  0.8353432195D-01
      0.2559000000D+02  0.2395828457D+00
      0.8997000000D+01  0.4428528419D+00
      0.3319000000D+01  0.3517995618D+00
 S   6 1.00       0.000000000000
      0.2808000000D+03 -0.5949224937D-04
      0.7927000000D+02 -0.1148158310D-02
      0.2559000000D+02 -0.1001913745D-01
      0.8997000000D+01 -0.6121949230D-01
      0.3319000000D+01 -0.1732698541D+00
      0.3643000000D+00  0.1072915192D+01
 S   1 1.00       0.000000000000
      0.9059000000D+00  0.1000000000D+01
 S   1 1.00       0.000000000000
      0.1285000000D+00  0.1000000000D+01
 P   3 1.00       0.000000000000
      0.1871000000D+02  0.3942638716D-01
      0.4133000000D+01  0.2440889849D+00
      0.1200000000D+01  0.8154920089D+00
 P   1 1.00       0.000000000000
      0.3827000000D+00  0.1000000000D+01
 P   1 1.00       0.000000000000
      0.1209000000D+00  0.1000000000D+01
 D   1 1.00       0.000000000000
      0.1097000000D+01  0.1000000000D+01
 D   1 1.00       0.000000000000
      0.3180000000D+00  0.1000000000D+01
 F   1 1.00       0.000000000000
      0.7610000000D+00  0.1000000000D+01
 ****
     10 0
 S   7 1.00       0.000000000000
      0.8236000000D+04  0.5419783203D-03
      0.1235000000D+04  0.4192873817D-02
      0.2808000000D+03  0.2152216205D-01
      0.7927000000D+02  0.8353432195D-01
      0.2559000000D+02  0.2395828457D+00
      0.8997000000D+01  0.4428528419D+00
      0.3319000000D+01  0.3517995618D+00
 S   6 1.00       0.000000000000
      0.2808000000D+03 -0.5949224937D-04
      0.7927000000D+02 -0.1148158310D-02
      0.2559000000D+02 -0.1001913745D-01
      0.8997000000D+01 -0.6121949230D-01
      0.3319000000D+01 -0.1732698541D+00
      0.3643000000D+00  0.1072915192D+01
 S   1 1.00       0.000000000000
      0.9059000000D+00  0.1000000000D+01
 S   1 1.00       0.000000000000
      0.1285000000D+00  0.1000000000D+01
 P   3 1.00       0.000000000000
      0.1871000000D+02  0.3942638716D-01
      0.4133000000D+01  0.2440889849D+00
      0.1200000000D+01  0.8154920089D+00
 P   1 1.00       0.000000000000
      0.3827000000D+00  0.1000000000D+01
 P   1 1.00       0.000000000000
      0.1209000000D+00  0.1000000000D+01
 D   1 1.00       0.000000000000
      0.1097000000D+01  0.1000000000D+01
 D   1 1.00       0.000000000000
      0.3180000000D+00  0.1000000000D+01
 F   1 1.00       0.000000000000
      0.7610000000D+00  0.1000000000D+01
 ****
     11 0
 S   3 1.00       0.000000000000
      0.3387000000D+02  0.2549486323D-01
      0.5095000000D+01  0.1903627659D+00
      0.1159000000D+01  0.8521620222D+00
 S   1 1.00       0.000000000000
      0.3258000000D+00  0.1000000000D+01
 S   1 1.00       0.000000000000
      0.1027000000D+00  0.1000000000D+01
 P   1 1.00       0.000000000000
      0.1407000000D+01  0.1000000000D+01
 P   1 1.00       0.000000000000
      0.3880000000D+00  0.1000000000D+01
 D   1 1.00       0.000000000000
      0.1057000000D+01  0.1000000000D+01
 ****
     12 0
 S   3 1.00       0.000000000000
      0.3387000000D+02  0.2549486323D-01
      0.5095000000D+01  0.1903627659D+00
      0.1159000000D+01  0.8521620222D+00
 S   1 1.00       0.000000000000
      0.3258000000D+00  0.1000000000D+01
 S   1 1.00       0.000000000000
      0.1027000000D+00  0.1000000000D+01
 P   1 1.00       0.000000000000
      0.1407000000D+01  0.1000000000D+01
 P   1 1.00       0.000000000000
      0.3880000000D+00  0.1000000000D+01
 D   1 1.00       0.000000000000
      0.1057000000D+01  0.1000000000D+01
 ****
     13 0
 S   3 1.00       0.000000000000
      0.3387000000D+02  0.2549486323D-01
      0.5095000000D+01  0.1903627659D+00
      0.1159000000D+01  0.8521620222D+00
 S   1 1.00       0.000000000000
      0.3258000000D+00  0.1000000000D+01
 S   1 1.00       0.000000000000
      0.1027000000D+00  0.1000000000D+01
 P   1 1.00       0.000000000000
      0.1407000000D+01  0.1000000000D+01
 P   1 1.00       0.000000000000
      0.3880000000D+00  0.1000000000D+01
 D   1 1.00       0.000000000000
      0.1057000000D+01  0.1000000000D+01
 ****
     14 0
 S   3 1.00       0.000000000000
      0.3387000000D+02  0.2549486323D-01
      0.5095000000D+01  0.1903627659D+00
      0.1159000000D+01  0.8521620222D+00
 S   1 1.00       0.000000000000
      0.3258000000D+00  0.1000000000D+01
 S   1 1.00       0.000000000000
      0.1027000000D+00  0.1000000000D+01
 P   1 1.00       0.000000000000
      0.1407000000D+01  0.1000000000D+01
 P   1 1.00       0.000000000000
      0.3880000000D+00  0.1000000000D+01
 D   1 1.00       0.000000000000
      0.1057000000D+01  0.1000000000D+01
 ****
     15 0
 S   3 1.00       0.000000000000
      0.3387000000D+02  0.2549486323D-01
      0.5095000000D+01  0.1903627659D+00
      0.1159000000D+01  0.8521620222D+00
 S   1 1.00       0.000000000000
      0.3258000000D+00  0.1000000000D+01
 S   1 1.00       0.000000000000
      0.1027000000D+00  0.1000000000D+01
 P   1 1.00       0.000000000000
      0.1407000000D+01  0.1000000000D+01
 P   1 1.00       0.000000000000
      0.3880000000D+00  0.1000000000D+01
 D   1 1.00       0.000000000000
      0.1057000000D+01  0.1000000000D+01
 ****

 There are   191 symmetry adapted cartesian basis functions of A   symmetry.
 There are   183 symmetry adapted cartesian basis functions of B   symmetry.
 There are   166 symmetry adapted basis functions of A   symmetry.
 There are   162 symmetry adapted basis functions of B   symmetry.
   328 basis functions,   725 primitive gaussians,   374 cartesian basis functions
    31 alpha electrons       31 beta electrons
       nuclear repulsion energy       320.7392817687 Hartrees.
 NAtoms=   15 NActive=   15 NUniq=    8 SFac= 3.52D+00 NAtFMM=   60 NAOKFM=F Big=F
 Integral buffers will be    131072 words long.
 Raffenetti 1 integral format.
 Two-electron integral symmetry is turned on.
 One-electron integrals computed using PRISM.
 NBasis=   328 RedAO= T EigKep=  6.20D-04  NBF=   166   162
 NBsUse=   328 1.00D-06 EigRej= -1.00D+00 NBFU=   166   162
 ExpMin= 3.77D-02 ExpMax= 5.82D+06 ExpMxC= 6.61D+03 IAcc=3 IRadAn=         5 AccDes= 0.00D+00
 Harris functional with IExCor=  205 and IRadAn=       5 diagonalized for initial guess.
 HarFok:  IExCor=  205 AccDes= 0.00D+00 IRadAn=         5 IDoV= 1 UseB2=F ITyADJ=14
 ICtDFT=  3500011 ScaDFX=  1.000000  1.000000  1.000000  1.000000
 FoFCou: FMM=F IPFlag=           0 FMFlag=      100000 FMFlg1=           0
         NFxFlg=           0 DoJE=T BraDBF=F KetDBF=T FulRan=T
         wScrn=  0.000000 ICntrl=     500 IOpCl=  0 I1Cent=   200000004 NGrid=           0
         NMat0=    1 NMatS0=      1 NMatT0=    0 NMatD0=    1 NMtDS0=    0 NMtDT0=    0
 Petite list used in FoFCou.
 Initial guess orbital symmetries:
       Occupied  (A) (A) (B) (B) (A) (A) (B) (B) (A) (A) (B) (B)
                 (A) (A) (B) (A) (B) (B) (A) (A) (B) (A) (B) (B)
                 (A) (A) (A) (B) (A) (B) (B)
       Virtual   (A) (B) (A) (A) (B) (A) (A) (A) (B) (B) (A) (B)
                 (B) (B) (A) (A) (A) (B) (A) (B) (A) (B) (B) (A)
                 (A) (B) (B) (A) (B) (A) (A) (B) (B) (B) (A) (B)
                 (A) (B) (A) (B) (A) (A) (B) (A) (A) (B) (B) (A)
                 (B) (A) (B) (A) (A) (B) (A) (B) (A) (B) (B) (B)
                 (A) (A) (B) (A) (B) (A) (B) (B) (A) (A) (A) (B)
                 (B) (B) (A) (A) (B) (A) (B) (A) (B) (B) (A) (A)
                 (A) (B) (A) (B) (A) (A) (B) (B) (A) (B) (A) (A)
                 (B) (B) (A) (A) (B) (B) (A) (B) (A) (B) (B) (B)
                 (A) (A) (A) (B) (A) (B) (B) (A) (B) (A) (B) (A)
                 (B) (A) (A) (B) (B) (A) (A) (A) (B) (A) (B) (B)
                 (B) (A) (B) (A) (A) (A) (B) (A) (B) (B) (B) (A)
                 (A) (B) (A) (B) (B) (A) (B) (A) (B) (A) (A) (B)
                 (B) (A) (A) (B) (A) (A) (B) (B) (B) (A) (A) (B)
                 (A) (B) (A) (B) (A) (A) (A) (B) (B) (B) (A) (B)
                 (B) (A) (A) (B) (B) (A) (B) (A) (B) (A) (A) (B)
                 (A) (A) (B) (A) (B) (B) (A) (A) (B) (B) (B) (A)
                 (A) (B) (A) (A) (B) (B) (A) (B) (A) (A) (B) (B)
                 (A) (A) (B) (B) (A) (A) (B) (A) (B) (B) (A) (B)
                 (A) (B) (A) (B) (A) (B) (A) (B) (A) (A) (B) (B)
                 (A) (A) (B) (B) (A) (B) (A) (B) (A) (B) (A) (B)
                 (A) (B) (B) (A) (B) (A) (A) (B) (B) (A) (A) (B)
                 (A) (B) (A) (B) (A) (B) (B) (A) (B) (A) (B) (A)
                 (A) (A) (B) (B) (A) (A) (B) (B) (A) (A) (B) (B)
                 (A) (B) (B) (A) (A) (B) (B) (A) (A)
 The electronic state of the initial guess is 1-A.
 Requested convergence on RMS density matrix=1.00D-08 within  64 cycles.
 Requested convergence on MAX density matrix=1.00D-06.
 Requested convergence on             energy=1.00D-06.
 No special actions if energy rises.
 EnCoef did   100 forward-backward iterations
 Initial convergence to 1.0D-05 achieved.  Increase integral accuracy.
 SCF Done:  E(RHF) =  -1934.29993950     A.U. after   17 cycles
            NFock= 17  Conv=0.71D-08     -V/T= 1.9999
 QCSCF skips out because SCF is already converged.
 ExpMin= 3.77D-02 ExpMax= 5.82D+06 ExpMxC= 6.61D+03 IAcc=3 IRadAn=         5 AccDes= 0.00D+00
 HarFok:  IExCor=  205 AccDes= 0.00D+00 IRadAn=         5 IDoV=-2 UseB2=F ITyADJ=14
 ICtDFT= 12500011 ScaDFX=  1.000000  1.000000  1.000000  1.000000
 DSYEVD-2 returned Info=         103 IAlg= 4 N=    68 NDim=    68 NE2=    30835669 trying  DSYEV.
 Range of M.O.s used for correlation:    14   328
 NBasis=   328 NAE=    31 NBE=    31 NFC=    13 NFV=     0
 NROrb=    315 NOA=    18 NOB=    18 NVA=   297 NVB=   297

 **** Warning!!: The largest alpha MO coefficient is  0.11853053D+02

 Semi-Direct transformation.
 ModeAB=           4 MOrb=            18 LenV=    2094311699
 LASXX=    135562155 LTotXX=   135562155 LenRXX=   272396659
 LTotAB=   136834504 MaxLAS=   188839350 LenRXY=           0
 NonZer=   407958814 LenScr=   614338560 LnRSAI=   188839350
 LnScr1=   284369920 LExtra=           0 Total=   1359944489
 MaxDsk=          -1 SrtSym=           T ITran=            4
 JobTyp=0 Pass  1:  I=   1 to  18.
 (rs|ai) integrals will be sorted in core.
 Spin components of T(2) and E(2):
     alpha-alpha T2 =       0.4239442821D-01 E2=     -0.1709883416D+00
     alpha-beta  T2 =       0.2811183842D+00 E2=     -0.9027117933D+00
     beta-beta   T2 =       0.4239442821D-01 E2=     -0.1709883416D+00
 ANorm=    0.1168720343D+01
 E2 =    -0.1244688477D+01 EUMP2 =    -0.19355446279805D+04
 Would need an additional        86502355 words for in-memory AO integral storage.
 Iterations= 100 Convergence= 0.100D-06
 Iteration Nr.   1
 **********************
 DD1Dir will call FoFJK   1 times, MxPair=       342
 NAB=   171 NAA=     0 NBB=     0 NumPrc=  8.
 FoFJK:  IHMeth= 1 ICntrl=     200 DoSepK=F KAlg= 0 I1Cent=   0 FoldK=F
 IRaf= 990000000 NMat= 342 IRICut=     427 DoRegI=T DoRafI=T ISym2E=-1.
 FoFCou: FMM=F IPFlag=           0 FMFlag=      100000 FMFlg1=           0
         NFxFlg=           0 DoJE=F BraDBF=F KetDBF=F FulRan=T
         wScrn=  0.000000 ICntrl=     200 IOpCl=  0 I1Cent=           0 NGrid=           0
         NMat0=  342 NMatS0=      0 NMatT0=  171 NMatD0=  342 NMtDS0=    0 NMtDT0=    0
 Petite list used in FoFCou.
 MP4(R+Q)=  0.31308626D-01
 E3=        0.27983942D-01        EUMP3=      -0.19355166440D+04
 E4(DQ)=   -0.13687525D-01        UMP4(DQ)=   -0.19355303316D+04
 E4(SDQ)=  -0.29851359D-01        UMP4(SDQ)=  -0.19355464954D+04
 DE(Corr)=  -1.1842317     E(Corr)=     -1935.4841712    
 NORM(A)=   0.11657765D+01
 Iteration Nr.   2
 **********************
 DD1Dir will call FoFJK   1 times, MxPair=       342
 NAB=   171 NAA=     0 NBB=     0 NumPrc=  8.
 DE(Corr)=  -1.2335118     E(CORR)=     -1935.5334513     Delta=-4.93D-02
 NORM(A)=   0.11855377D+01
 Iteration Nr.   3
 **********************
 DD1Dir will call FoFJK   1 times, MxPair=       342
 NAB=   171 NAA=     0 NBB=     0 NumPrc=  8.
 DE(Corr)=  -1.2273985     E(CORR)=     -1935.5273380     Delta= 6.11D-03
 NORM(A)=   0.11917389D+01
 Iteration Nr.   4
 **********************
 DD1Dir will call FoFJK   1 times, MxPair=       342
 NAB=   171 NAA=     0 NBB=     0 NumPrc=  8.
 DE(Corr)=  -1.2320154     E(CORR)=     -1935.5319549     Delta=-4.62D-03
 NORM(A)=   0.11947052D+01
 Iteration Nr.   5
 **********************
 DD1Dir will call FoFJK   1 times, MxPair=       342
 NAB=   171 NAA=     0 NBB=     0 NumPrc=  8.
 DE(Corr)=  -1.2326314     E(CORR)=     -1935.5325709     Delta=-6.16D-04
 NORM(A)=   0.11967064D+01
 Iteration Nr.   6
 **********************
 DD1Dir will call FoFJK   1 times, MxPair=       342
 NAB=   171 NAA=     0 NBB=     0 NumPrc=  8.
 DE(Corr)=  -1.2327756     E(CORR)=     -1935.5327151     Delta=-1.44D-04
 NORM(A)=   0.11977622D+01
 Iteration Nr.   7
 **********************
 DD1Dir will call FoFJK   1 times, MxPair=       342
 NAB=   171 NAA=     0 NBB=     0 NumPrc=  8.
 DE(Corr)=  -1.2327987     E(CORR)=     -1935.5327382     Delta=-2.32D-05
 NORM(A)=   0.11978984D+01
 Iteration Nr.   8
 **********************
 DD1Dir will call FoFJK   1 times, MxPair=       342
 NAB=   171 NAA=     0 NBB=     0 NumPrc=  8.
 DE(Corr)=  -1.2328500     E(CORR)=     -1935.5327895     Delta=-5.13D-05
 NORM(A)=   0.11980025D+01
 Iteration Nr.   9
 **********************
 DD1Dir will call FoFJK   1 times, MxPair=       342
 NAB=   171 NAA=     0 NBB=     0 NumPrc=  8.
 DE(Corr)=  -1.2327947     E(CORR)=     -1935.5327342     Delta= 5.52D-05
 NORM(A)=   0.11979501D+01
 Iteration Nr.  10
 **********************
 DD1Dir will call FoFJK   1 times, MxPair=       342
 NAB=   171 NAA=     0 NBB=     0 NumPrc=  8.
 DE(Corr)=  -1.2328299     E(CORR)=     -1935.5327694     Delta=-3.52D-05
 NORM(A)=   0.11979606D+01
 Iteration Nr.  11
 **********************
 DD1Dir will call FoFJK   1 times, MxPair=       342
 NAB=   171 NAA=     0 NBB=     0 NumPrc=  8.
 DE(Corr)=  -1.2328148     E(CORR)=     -1935.5327543     Delta= 1.51D-05
 NORM(A)=   0.11979631D+01
 Iteration Nr.  12
 **********************
 DD1Dir will call FoFJK   1 times, MxPair=       342
 NAB=   171 NAA=     0 NBB=     0 NumPrc=  8.
 DE(Corr)=  -1.2328295     E(CORR)=     -1935.5327690     Delta=-1.47D-05
 NORM(A)=   0.11979758D+01
 Iteration Nr.  13
 **********************
 DD1Dir will call FoFJK   1 times, MxPair=       342
 NAB=   171 NAA=     0 NBB=     0 NumPrc=  8.
 DE(Corr)=  -1.2328266     E(CORR)=     -1935.5327661     Delta= 2.94D-06
 NORM(A)=   0.11979870D+01
 Iteration Nr.  14
 **********************
 DD1Dir will call FoFJK   1 times, MxPair=       342
 NAB=   171 NAA=     0 NBB=     0 NumPrc=  8.
 DE(Corr)=  -1.2328284     E(CORR)=     -1935.5327679     Delta=-1.82D-06
 NORM(A)=   0.11979933D+01
 Iteration Nr.  15
 **********************
 DD1Dir will call FoFJK   1 times, MxPair=       342
 NAB=   171 NAA=     0 NBB=     0 NumPrc=  8.
 DE(Corr)=  -1.2328289     E(CORR)=     -1935.5327684     Delta=-4.98D-07
 NORM(A)=   0.11979978D+01
 Iteration Nr.  16
 **********************
 DD1Dir will call FoFJK   1 times, MxPair=       342
 NAB=   171 NAA=     0 NBB=     0 NumPrc=  8.
 DE(Corr)=  -1.2328289     E(CORR)=     -1935.5327684     Delta= 4.71D-08
 NORM(A)=   0.11980005D+01
 Iteration Nr.  17
 **********************
 DD1Dir will call FoFJK   1 times, MxPair=       342
 NAB=   171 NAA=     0 NBB=     0 NumPrc=  8.
 DE(Corr)=  -1.2328291     E(CORR)=     -1935.5327686     Delta=-2.01D-07
 NORM(A)=   0.11980020D+01
 Iteration Nr.  18
 **********************
 DD1Dir will call FoFJK   1 times, MxPair=       342
 NAB=   171 NAA=     0 NBB=     0 NumPrc=  8.
 DE(Corr)=  -1.2328293     E(CORR)=     -1935.5327688     Delta=-2.00D-07
 NORM(A)=   0.11980027D+01
 Iteration Nr.  19
 **********************
 DD1Dir will call FoFJK   1 times, MxPair=       342
 NAB=   171 NAA=     0 NBB=     0 NumPrc=  8.
 DE(Corr)=  -1.2328292     E(CORR)=     -1935.5327687     Delta= 2.02D-08
 NORM(A)=   0.11980027D+01
 Iteration Nr.  20
 **********************
 DD1Dir will call FoFJK   1 times, MxPair=       342
 NAB=   171 NAA=     0 NBB=     0 NumPrc=  8.
 DE(Corr)=  -1.2328293     E(CORR)=     -1935.5327688     Delta=-9.45D-08
 NORM(A)=   0.11980027D+01
 Iteration Nr.  21
 **********************
 DD1Dir will call FoFJK   1 times, MxPair=       342
 NAB=   171 NAA=     0 NBB=     0 NumPrc=  8.
 DE(Corr)=  -1.2328293     E(CORR)=     -1935.5327688     Delta= 1.13D-08
 NORM(A)=   0.11980027D+01
 Iteration Nr.  22
 **********************
 DD1Dir will call FoFJK   1 times, MxPair=       342
 NAB=   171 NAA=     0 NBB=     0 NumPrc=  8.
 DE(Corr)=  -1.2328293     E(CORR)=     -1935.5327688     Delta= 2.99D-08
 NORM(A)=   0.11980028D+01
 Iteration Nr.  23
 **********************
 DD1Dir will call FoFJK   1 times, MxPair=       342
 NAB=   171 NAA=     0 NBB=     0 NumPrc=  8.
 DE(Corr)=  -1.2328293     E(CORR)=     -1935.5327688     Delta=-3.89D-08
 NORM(A)=   0.11980028D+01
 Dominant configurations:
 ***********************
 Spin Case        I    J    A    B          Value
   ABAB          31   31   32   32      -0.254485D+00
 Largest amplitude= 2.54D-01
 Time for triples=    25224.64 seconds.
 T4(CCSD)= -0.63528488D-01
 T5(CCSD)=  0.31238874D-02
 CCSD(T)= -0.19355931734D+04
 Discarding MO integrals.

 **********************************************************************

            Population analysis using the SCF density.

 **********************************************************************

 Orbital symmetries:
       Occupied  (A) (A) (B) (A) (B) (A) (B) (A) (B) (A) (B) (B)
                 (A) (A) (B) (A) (B) (A) (B) (A) (B) (A) (A) (B)
                 (A) (B) (A) (B) (A) (B) (A)
       Virtual   (B) (B) (A) (A) (B) (A) (A) (B) (B) (A) (A) (B)
                 (B) (A) (A) (B) (A) (B) (A) (B) (A) (B) (B) (A)
                 (B) (A) (B) (A) (B) (A) (B) (A) (A) (B) (B) (B)
                 (A) (B) (A) (B) (A) (A) (A) (A) (B) (B) (A) (B)
                 (A) (B) (B) (A) (A) (B) (A) (B) (A) (B) (A) (B)
                 (B) (A) (B) (A) (B) (B) (A) (A) (B) (A) (B) (B)
                 (A) (B) (A) (A) (A) (B) (B) (B) (A) (B) (A) (A)
                 (A) (A) (B) (B) (A) (B) (A) (A) (B) (B) (A) (A)
                 (B) (B) (A) (A) (B) (B) (A) (B) (A) (B) (B) (A)
                 (B) (A) (A) (B) (A) (B) (A) (B) (B) (A) (B) (A)
                 (A) (B) (B) (A) (A) (B) (A) (B) (A) (A) (B) (B)
                 (B) (A) (B) (A) (B) (A) (A) (A) (B) (B) (B) (A)
                 (A) (A) (B) (B) (B) (A) (B) (A) (B) (A) (B) (A)
                 (B) (A) (A) (B) (A) (B) (A) (B) (B) (A) (A) (B)
                 (A) (A) (B) (B) (A) (A) (B) (A) (B) (B) (B) (A)
                 (B) (A) (A) (B) (A) (B) (B) (A) (B) (B) (A) (A)
                 (A) (A) (B) (B) (A) (A) (B) (B) (A) (B) (B) (A)
                 (A) (B) (A) (B) (A) (A) (B) (A) (B) (B) (A) (A)
                 (B) (A) (B) (A) (B) (B) (A) (A) (B) (A) (B) (B)
                 (A) (A) (B) (B) (A) (B) (A) (B) (A) (A) (B) (B)
                 (A) (A) (B) (B) (B) (A) (A) (B) (A) (A) (B) (B)
                 (A) (B) (B) (A) (A) (B) (B) (A) (B) (A) (A) (B)
                 (A) (B) (B) (A) (A) (B) (B) (A) (B) (A) (B) (A)
                 (A) (A) (B) (B) (A) (A) (B) (B) (A) (A) (B) (B)
                 (A) (B) (A) (B) (A) (B) (A) (B) (A)
 The electronic state is 1-A.
 Alpha  occ. eigenvalues -- -353.77026 -44.82880 -39.39257 -39.39249 -39.39059
 Alpha  occ. eigenvalues --  -11.69279 -11.69278 -11.58224 -11.58224  -6.10709
 Alpha  occ. eigenvalues --   -4.31355  -4.30682  -4.30672  -1.41639  -1.40307
 Alpha  occ. eigenvalues --   -1.27076  -1.25904  -1.25595  -1.24986  -1.24981
 Alpha  occ. eigenvalues --   -1.20991  -1.19231  -0.99949  -0.99274  -0.93526
 Alpha  occ. eigenvalues --   -0.93284  -0.89735  -0.89288  -0.85973  -0.85852
 Alpha  occ. eigenvalues --   -0.75485
 Alpha virt. eigenvalues --   -0.51830  -0.26220  -0.26058  -0.24227  -0.16269
 Alpha virt. eigenvalues --   -0.12599  -0.11634  -0.10692  -0.09611  -0.09543
 Alpha virt. eigenvalues --   -0.09327  -0.07424  -0.05758  -0.04753  -0.03555
 Alpha virt. eigenvalues --   -0.02826  -0.00714   0.00102   0.01457   0.05793
 Alpha virt. eigenvalues --    0.06581   0.07087   0.08021   0.08154   0.09008
 Alpha virt. eigenvalues --    0.09346   0.13135   0.14564   0.20596   0.23320
 Alpha virt. eigenvalues --    0.24568   0.25205   0.26126   0.26722   0.27409
 Alpha virt. eigenvalues --    0.27669   0.29519   0.31305   0.31626   0.33381
 Alpha virt. eigenvalues --    0.33570   0.35384   0.35717   0.37455   0.37497
 Alpha virt. eigenvalues --    0.39166   0.40328   0.40917   0.44773   0.46059
 Alpha virt. eigenvalues --    0.52107   0.53971   0.55811   0.59198   0.60408
 Alpha virt. eigenvalues --    0.62163   0.64023   0.66066   0.68804   0.68971
 Alpha virt. eigenvalues --    0.70479   0.75985   0.76861   0.78539   0.79995
 Alpha virt. eigenvalues --    0.82574   0.82932   0.87969   0.88377   0.89656
 Alpha virt. eigenvalues --    0.91162   0.92869   0.93333   0.93598   0.94470
 Alpha virt. eigenvalues --    0.95313   0.98091   1.00016   1.01495   1.01999
 Alpha virt. eigenvalues --    1.02043   1.03181   1.04293   1.07128   1.09425
 Alpha virt. eigenvalues --    1.12103   1.12559   1.15302   1.16204   1.17591
 Alpha virt. eigenvalues --    1.17821   1.21924   1.22372   1.24078   1.25419
 Alpha virt. eigenvalues --    1.27291   1.28638   1.29240   1.35324   1.37162
 Alpha virt. eigenvalues --    1.38433   1.41078   1.45702   1.47264   1.54474
 Alpha virt. eigenvalues --    1.55956   2.12268   2.14731   2.15129   2.18310
 Alpha virt. eigenvalues --    2.22364   2.27587   2.28353   2.29223   2.30988
 Alpha virt. eigenvalues --    2.34056   2.36892   2.37510   2.39402   2.39889
 Alpha virt. eigenvalues --    2.46635   2.47478   2.49266   2.52170   2.53325
 Alpha virt. eigenvalues --    2.53906   2.59419   2.59893   2.62814   2.65953
 Alpha virt. eigenvalues --    2.66961   2.70173   2.70905   2.72309   2.72678
 Alpha virt. eigenvalues --    2.73716   2.76172   2.77011   2.77734   2.80777
 Alpha virt. eigenvalues --    2.81837   2.83584   2.87256   2.90976   2.91408
 Alpha virt. eigenvalues --    2.91877   2.93488   2.93702   2.95203   2.97002
 Alpha virt. eigenvalues --    2.99601   3.01615   3.03658   3.03736   3.05340
 Alpha virt. eigenvalues --    3.05650   3.07256   3.08070   3.11220   3.11754
 Alpha virt. eigenvalues --    3.14414   3.16627   3.18529   3.20501   3.22790
 Alpha virt. eigenvalues --    3.24762   3.28899   3.30813   3.30922   3.36785
 Alpha virt. eigenvalues --    3.38879   3.40428   3.40898   3.41487   3.42121
 Alpha virt. eigenvalues --    3.43893   3.45377   3.48018   3.49794   3.50156
 Alpha virt. eigenvalues --    3.59177   3.60482   3.61366   3.61972   3.68484
 Alpha virt. eigenvalues --    3.71613   3.72820   3.73457   3.73961   3.75584
 Alpha virt. eigenvalues --    3.76461   3.78128   3.80212   3.83230   3.83435
 Alpha virt. eigenvalues --    3.84248   3.84378   3.89733   3.92606   3.94213
 Alpha virt. eigenvalues --    3.95315   3.95329   3.97257   3.97387   4.00912
 Alpha virt. eigenvalues --    4.02404   4.02718   4.02808   4.05217   4.06185
 Alpha virt. eigenvalues --    4.06325   4.09638   4.10368   4.10906   4.14498
 Alpha virt. eigenvalues --    4.18697   4.19089   4.21802   4.22455   4.22597
 Alpha virt. eigenvalues --    4.24289   4.28671   4.29782   4.30170   4.31665
 Alpha virt. eigenvalues --    4.38181   4.38642   4.44093   4.54367   4.55423
 Alpha virt. eigenvalues --    4.55556   4.62463   4.62960   4.63542   4.68737
 Alpha virt. eigenvalues --    4.75653   4.78955   4.79639   4.79647   4.80317
 Alpha virt. eigenvalues --    4.83663   4.84780   4.84958   4.86007   4.91901
 Alpha virt. eigenvalues --    4.92447   4.92695   5.03702   5.05937   5.14087
 Alpha virt. eigenvalues --    5.14837   5.16583   5.20353   5.20523   5.25904
 Alpha virt. eigenvalues --    5.27261   5.32754   5.32805   5.34401   5.34497
 Alpha virt. eigenvalues --    5.36898   5.38065   5.40414   5.41515   5.44560
 Alpha virt. eigenvalues --    5.45250   5.88214   5.91125   5.93343   5.93780
 Alpha virt. eigenvalues --    5.94053   5.94067  10.46403  10.48840  10.73537
 Alpha virt. eigenvalues --   10.77242  11.21392  11.77929  11.87687  13.41651
 Alpha virt. eigenvalues --   13.44459  15.77872  15.77887  15.79494  15.79896
 Alpha virt. eigenvalues --   15.85702  15.86130  15.99395  16.46400  16.46430
 Alpha virt. eigenvalues --   16.46461  16.46462  16.46588  16.46588  16.46757
 Alpha virt. eigenvalues --   16.46758  16.47698
          Condensed to atoms (all electrons):
               1          2          3          4          5          6
     1  Zn  28.801804   0.192288  -0.024830  -0.006756  -0.006104   0.005756
     2  C    0.192288   4.934473   0.333210   0.399646   0.399670  -0.002112
     3  C   -0.024830   0.333210   4.794005  -0.024217  -0.024345   0.376158
     4  H   -0.006756   0.399646  -0.024217   0.431514  -0.020879  -0.003581
     5  H   -0.006104   0.399670  -0.024345  -0.020879   0.430715  -0.003644
     6  H    0.005756  -0.002112   0.376158  -0.003581  -0.003644   0.422305
     7  H   -0.001470  -0.026167   0.412494  -0.003424   0.003537  -0.016484
     8  H   -0.001442  -0.026914   0.412386   0.003600  -0.003488  -0.016355
     9  C    0.192288   0.005721  -0.001145  -0.000375  -0.000425   0.000033
    10  C   -0.024830  -0.001145   0.000042   0.000018   0.000027  -0.000002
    11  H   -0.006756  -0.000375   0.000018   0.000001   0.000014  -0.000001
    12  H   -0.006104  -0.000425   0.000027   0.000014   0.000011  -0.000001
    13  H    0.005756   0.000033  -0.000002  -0.000001  -0.000001   0.000000
    14  H   -0.001470  -0.000070  -0.000001   0.000012   0.000006   0.000000
    15  H   -0.001442  -0.000073   0.000003  -0.000003   0.000028   0.000000
               7          8          9         10         11         12
     1  Zn  -0.001470  -0.001442   0.192288  -0.024830  -0.006756  -0.006104
     2  C   -0.026167  -0.026914   0.005721  -0.001145  -0.000375  -0.000425
     3  C    0.412494   0.412386  -0.001145   0.000042   0.000018   0.000027
     4  H   -0.003424   0.003600  -0.000375   0.000018   0.000001   0.000014
     5  H    0.003537  -0.003488  -0.000425   0.000027   0.000014   0.000011
     6  H   -0.016484  -0.016355   0.000033  -0.000002  -0.000001  -0.000001
     7  H    0.491361  -0.026566  -0.000070  -0.000001   0.000012   0.000006
     8  H   -0.026566   0.492932  -0.000073   0.000003  -0.000003   0.000028
     9  C   -0.000070  -0.000073   4.934473   0.333210   0.399646   0.399670
    10  C   -0.000001   0.000003   0.333210   4.794005  -0.024217  -0.024345
    11  H    0.000012  -0.000003   0.399646  -0.024217   0.431514  -0.020879
    12  H    0.000006   0.000028   0.399670  -0.024345  -0.020879   0.430715
    13  H    0.000000   0.000000  -0.002112   0.376158  -0.003581  -0.003644
    14  H    0.000000   0.000001  -0.026167   0.412494  -0.003424   0.003537
    15  H    0.000001  -0.000002  -0.026914   0.412386   0.003600  -0.003488
              13         14         15
     1  Zn   0.005756  -0.001470  -0.001442
     2  C    0.000033  -0.000070  -0.000073
     3  C   -0.000002  -0.000001   0.000003
     4  H   -0.000001   0.000012  -0.000003
     5  H   -0.000001   0.000006   0.000028
     6  H    0.000000   0.000000   0.000000
     7  H    0.000000   0.000000   0.000001
     8  H    0.000000   0.000001  -0.000002
     9  C   -0.002112  -0.026167  -0.026914
    10  C    0.376158   0.412494   0.412386
    11  H   -0.003581  -0.003424   0.003600
    12  H   -0.003644   0.003537  -0.003488
    13  H    0.422305  -0.016484  -0.016355
    14  H   -0.016484   0.491361  -0.026566
    15  H   -0.016355  -0.026566   0.492932
 Mulliken charges:
               1
     1  Zn   0.883315
     2  C   -0.207760
     3  C   -0.253801
     4  H    0.224431
     5  H    0.224878
     6  H    0.237927
     7  H    0.166772
     8  H    0.165894
     9  C   -0.207760
    10  C   -0.253801
    11  H    0.224431
    12  H    0.224878
    13  H    0.237927
    14  H    0.166772
    15  H    0.165894
 Sum of Mulliken charges =   2.00000
 Mulliken charges with hydrogens summed into heavy atoms:
               1
     1  Zn   0.883315
     2  C    0.241550
     3  C    0.316793
     9  C    0.241550
    10  C    0.316793
 Electronic spatial extent (au):  <R**2>=            904.5302
 Charge=              2.0000 electrons
 Dipole moment (field-independent basis, Debye):
    X=              0.0000    Y=              0.0000    Z=              0.1092  Tot=              0.1092
 Quadrupole moment (field-independent basis, Debye-Ang):
   XX=            -26.6855   YY=             11.7766   ZZ=            -32.6389
   XY=             10.4729   XZ=              0.0000   YZ=              0.0000
 Traceless Quadrupole moment (field-independent basis, Debye-Ang):
   XX=            -10.8363   YY=             27.6259   ZZ=            -16.7896
   XY=             10.4729   XZ=              0.0000   YZ=              0.0000
 Octapole moment (field-independent basis, Debye-Ang**2):
  XXX=              0.0000  YYY=              0.0000  ZZZ=              3.5670  XYY=              0.0000
  XXY=              0.0000  XXZ=             -1.2629  XZZ=              0.0000  YZZ=              0.0000
  YYZ=             -2.8341  XYZ=             -3.6248
 Hexadecapole moment (field-independent basis, Debye-Ang**3):
 XXXX=           -186.1437 YYYY=           -418.7423 ZZZZ=            -55.3980 XXXY=           -103.5370
 XXXZ=              0.0000 YYYX=            -21.4451 YYYZ=              0.0000 ZZZX=              0.0000
 ZZZY=              0.0000 XXYY=           -105.3369 XXZZ=            -38.6003 YYZZ=           -138.8798
 XXYZ=              0.0000 YYXZ=              0.0000 ZZXY=            -46.4807
 N-N= 3.207392817687D+02 E-N=-5.240528122741D+03  KE= 1.934429102728D+03
 Symmetry A    KE= 1.418368872581D+03
 Symmetry B    KE= 5.160602301473D+02
 1\1\GINC-GAMBA\SP\RCCSD(T)-FC\Gen\C4H10Zn1(2+)\IRIKURA\19-May-2017\0\\
 # CCSD(T,maxcyc=100)/GEN gfinput geom=check scf=xqc\\BEB step 10: low-
 spin CCSD(T) for dication of ZnEt2\\2,1\Zn,0,0.,0.,0.092059\C,0,0.,1.9
 33945,0.090127\C,0,1.360973,2.577345,-0.233751\H,0,-0.346594,2.294125,
 1.069841\H,0,-0.75069,2.294418,-0.628225\H,0,1.311324,3.675407,-0.2230
 1\H,0,2.134924,2.28887,0.488877\H,0,1.727459,2.287037,-1.226622\C,0,0.
 ,-1.933945,0.090127\C,0,-1.360973,-2.577345,-0.233751\H,0,0.346594,-2.
 294125,1.069841\H,0,0.75069,-2.294418,-0.628225\H,0,-1.311324,-3.67540
 7,-0.22301\H,0,-2.134924,-2.28887,0.488877\H,0,-1.727459,-2.287037,-1.
 226622\\Version=ES64L-G09RevD.01\State=1-A\HF=-1934.2999395\MP2=-1935.
 544628\MP3=-1935.516644\MP4D=-1935.5616402\MP4DQ=-1935.5303316\MP4SDQ=
 -1935.5464954\CCSD=-1935.5327688\CCSD(T)=-1935.5931734\RMSD=7.107e-09\
 PG=C02 [C2(Zn1),X(C4H10)]\\@


 THEORY:  SUPPOSITION WHICH HAS SCIENTIFIC BASIS,
          BUT NOT EXPERIMENTALLY PROVEN.
 FACT:    A THEORY WHICH HAS BEEN PROVEN BY ENOUGH 
          MONEY TO PAY FOR THE EXPERIMENTS.

                          --  THE WIZARD OF ID
 Job cpu time:       0 days 13 hours 22 minutes 28.9 seconds.
 File lengths (MBytes):  RWF=  12022 Int=      0 D2E=      0 Chk=      9 Scr=      1
 Normal termination of Gaussian 09 at Fri May 19 07:09:43 2017.
