 Entering Gaussian System, Link 0=g09
 Initial command:
 /usr/local/apps/g09/l1.exe "/wrk/irikura/Gau-18130.inp" -scrdir="/wrk/irikura/"
 Entering Link 1 = /usr/local/apps/g09/l1.exe PID=     18132.
  
 Copyright (c) 1988,1990,1992,1993,1995,1998,2003,2009,2013,
            Gaussian, Inc.  All Rights Reserved.
  
 This is part of the Gaussian(R) 09 program.  It is based on
 the Gaussian(R) 03 system (copyright 2003, Gaussian, Inc.),
 the Gaussian(R) 98 system (copyright 1998, Gaussian, Inc.),
 the Gaussian(R) 94 system (copyright 1995, Gaussian, Inc.),
 the Gaussian 92(TM) system (copyright 1992, Gaussian, Inc.),
 the Gaussian 90(TM) system (copyright 1990, Gaussian, Inc.),
 the Gaussian 88(TM) system (copyright 1988, Gaussian, Inc.),
 the Gaussian 86(TM) system (copyright 1986, Carnegie Mellon
 University), and the Gaussian 82(TM) system (copyright 1983,
 Carnegie Mellon University). Gaussian is a federally registered
 trademark of Gaussian, Inc.
  
 This software contains proprietary and confidential information,
 including trade secrets, belonging to Gaussian, Inc.
  
 This software is provided under written license and may be
 used, copied, transmitted, or stored only in accord with that
 written license.
  
 The following legend is applicable only to US Government
 contracts under FAR:
  
                    RESTRICTED RIGHTS LEGEND
  
 Use, reproduction and disclosure by the US Government is
 subject to restrictions as set forth in subparagraphs (a)
 and (c) of the Commercial Computer Software - Restricted
 Rights clause in FAR 52.227-19.
  
 Gaussian, Inc.
 340 Quinnipiac St., Bldg. 40, Wallingford CT 06492
  
  
 ---------------------------------------------------------------
 Warning -- This program may not be used in any manner that
 competes with the business of Gaussian, Inc. or will provide
 assistance to any competitor of Gaussian, Inc.  The licensee
 of this program is prohibited from giving any competitor of
 Gaussian, Inc. access to this program.  By using this program,
 the user acknowledges that Gaussian, Inc. is engaged in the
 business of creating and licensing software in the field of
 computational chemistry and represents and warrants to the
 licensee that it is not a competitor of Gaussian, Inc. and that
 it will not use this program in any manner prohibited above.
 ---------------------------------------------------------------
  

 Cite this work as:
 Gaussian 09, Revision D.01,
 M. J. Frisch, G. W. Trucks, H. B. Schlegel, G. E. Scuseria, 
 M. A. Robb, J. R. Cheeseman, G. Scalmani, V. Barone, B. Mennucci, 
 G. A. Petersson, H. Nakatsuji, M. Caricato, X. Li, H. P. Hratchian, 
 A. F. Izmaylov, J. Bloino, G. Zheng, J. L. Sonnenberg, M. Hada, 
 M. Ehara, K. Toyota, R. Fukuda, J. Hasegawa, M. Ishida, T. Nakajima, 
 Y. Honda, O. Kitao, H. Nakai, T. Vreven, J. A. Montgomery, Jr., 
 J. E. Peralta, F. Ogliaro, M. Bearpark, J. J. Heyd, E. Brothers, 
 K. N. Kudin, V. N. Staroverov, T. Keith, R. Kobayashi, J. Normand, 
 K. Raghavachari, A. Rendell, J. C. Burant, S. S. Iyengar, J. Tomasi, 
 M. Cossi, N. Rega, J. M. Millam, M. Klene, J. E. Knox, J. B. Cross, 
 V. Bakken, C. Adamo, J. Jaramillo, R. Gomperts, R. E. Stratmann, 
 O. Yazyev, A. J. Austin, R. Cammi, C. Pomelli, J. W. Ochterski, 
 R. L. Martin, K. Morokuma, V. G. Zakrzewski, G. A. Voth, 
 P. Salvador, J. J. Dannenberg, S. Dapprich, A. D. Daniels, 
 O. Farkas, J. B. Foresman, J. V. Ortiz, J. Cioslowski, 
 and D. J. Fox, Gaussian, Inc., Wallingford CT, 2013.
 
 ******************************************
 Gaussian 09:  ES64L-G09RevD.01 24-Apr-2013
                26-May-2017 
 ******************************************
 %chk=ZnEt2.chk
 %nprocs=6
 Will use up to    6 processors via shared memory.
 %mem=4000mw
 --------------------------------------------------
 # HF/GEN geom=check guess=check scf=xqc stable=opt
 --------------------------------------------------
 1/29=2,38=1/1;
 2/12=2,40=1/2;
 3/5=7,11=2,14=-4,16=1,25=1,30=1,116=-2/1,2,3;
 4/5=1/1;
 5/5=2,8=3,13=1,38=6/2,8;
 6/7=2,8=2,9=2,10=2,28=1/1;
 8/6=1,10=90,11=11/1;
 9/8=-3,42=1,46=1/14;
 5/5=2,8=3,17=40,38=6/8(-2);
 6/7=2,8=2,9=2,10=2,28=1/1;
 99/5=1,9=1/99;
 ---------------------------------------
 HF stabilization to precede BEB step 10
 ---------------------------------------
 Structure from the checkpoint file:  "ZnEt2.chk"
 Charge =  2 Multiplicity = 1
 Redundant internal coordinates found in file.
 Zn,0,0.,0.,0.092059
 C,0,0.,1.933945,0.090127
 C,0,1.360973,2.577345,-0.233751
 H,0,-0.346594,2.294125,1.069841
 H,0,-0.75069,2.294418,-0.628225
 H,0,1.311324,3.675407,-0.22301
 H,0,2.134924,2.28887,0.488877
 H,0,1.727459,2.287037,-1.226622
 C,0,0.,-1.933945,0.090127
 C,0,-1.360973,-2.577345,-0.233751
 H,0,0.346594,-2.294125,1.069841
 H,0,0.75069,-2.294418,-0.628225
 H,0,-1.311324,-3.675407,-0.22301
 H,0,-2.134924,-2.28887,0.488877
 H,0,-1.727459,-2.287037,-1.226622
 Recover connectivity data from disk.
                          Input orientation:                          
 ---------------------------------------------------------------------
 Center     Atomic      Atomic             Coordinates (Angstroms)
 Number     Number       Type             X           Y           Z
 ---------------------------------------------------------------------
      1         30           0        0.000000    0.000000    0.092059
      2          6           0        0.000000    1.933945    0.090127
      3          6           0        1.360973    2.577345   -0.233751
      4          1           0       -0.346594    2.294125    1.069841
      5          1           0       -0.750690    2.294418   -0.628225
      6          1           0        1.311324    3.675407   -0.223010
      7          1           0        2.134924    2.288870    0.488877
      8          1           0        1.727459    2.287037   -1.226622
      9          6           0        0.000000   -1.933945    0.090127
     10          6           0       -1.360973   -2.577345   -0.233751
     11          1           0        0.346594   -2.294125    1.069841
     12          1           0        0.750690   -2.294418   -0.628225
     13          1           0       -1.311324   -3.675407   -0.223010
     14          1           0       -2.134924   -2.288870    0.488877
     15          1           0       -1.727459   -2.287037   -1.226622
 ---------------------------------------------------------------------
                    Distance matrix (angstroms):
                    1          2          3          4          5
     1  Zn   0.000000
     2  C    1.933946   0.000000
     3  C    2.932764   1.539840   0.000000
     4  H    2.517776   1.099862   2.166876   0.000000
     5  H    2.519265   1.099775   2.166744   1.745486   0.000000
     6  H    3.915029   2.202343   1.099236   2.515571   2.514604
     7  H    3.155042   2.200653   1.097456   2.548623   3.094304
     8  H    3.154928   2.200595   1.097444   3.094429   2.549383
     9  C    1.933946   3.867890   4.723228   4.353911   4.354150
    10  C    2.932764   4.723228   5.829221   5.143883   4.925660
    11  H    2.517776   4.353911   5.143883   4.640318   5.014199
    12  H    2.519265   4.354150   4.925660   5.014199   4.828204
    13  H    3.915029   5.769095   6.799867   6.183646   6.009769
    14  H    3.155042   4.748586   6.035191   4.953735   4.916355
    15  H    3.154928   4.747066   5.846915   5.307313   4.722487
                    6          7          8          9         10
     6  H    0.000000
     7  H    1.762834   0.000000
     8  H    1.762945   1.763227   0.000000
     9  C    5.769095   4.748586   4.747066   0.000000
    10  C    6.799867   6.035191   5.846915   1.539840   0.000000
    11  H    6.183646   4.953735   5.307313   1.099862   2.166876
    12  H    6.009769   4.916355   4.722487   1.099775   2.166744
    13  H    7.804662   6.925028   6.766992   2.202343   1.099236
    14  H    6.925028   6.259976   6.228954   2.200653   1.097456
    15  H    6.766992   6.228954   5.732243   2.200595   1.097444
                   11         12         13         14         15
    11  H    0.000000
    12  H    1.745486   0.000000
    13  H    2.515571   2.514604   0.000000
    14  H    2.548623   3.094304   1.762834   0.000000
    15  H    3.094429   2.549383   1.762945   1.763227   0.000000
 Stoichiometry    C4H10Zn(2+)
 Framework group  C2[C2(Zn),X(C4H10)]
 Deg. of freedom    20
 Full point group                 C2      NOp   2
 Largest Abelian subgroup         C2      NOp   2
 Largest concise Abelian subgroup C2      NOp   2
                         Standard orientation:                         
 ---------------------------------------------------------------------
 Center     Atomic      Atomic             Coordinates (Angstroms)
 Number     Number       Type             X           Y           Z
 ---------------------------------------------------------------------
      1         30           0        0.000000    0.000000    0.092059
      2          6           0        0.000000    1.933945    0.090127
      3          6           0        1.360973    2.577345   -0.233751
      4          1           0       -0.346594    2.294125    1.069841
      5          1           0       -0.750690    2.294418   -0.628225
      6          1           0        1.311324    3.675407   -0.223010
      7          1           0        2.134924    2.288870    0.488877
      8          1           0        1.727459    2.287037   -1.226622
      9          6           0        0.000000   -1.933945    0.090127
     10          6           0       -1.360973   -2.577345   -0.233751
     11          1           0        0.346594   -2.294125    1.069841
     12          1           0        0.750690   -2.294418   -0.628225
     13          1           0       -1.311324   -3.675407   -0.223010
     14          1           0       -2.134924   -2.288870    0.488877
     15          1           0       -1.727459   -2.287037   -1.226622
 ---------------------------------------------------------------------
 Rotational constants (GHZ):     14.6723335      1.3797086      1.3187032
 General basis read from cards:  (5D, 7F)
 There are   191 symmetry adapted cartesian basis functions of A   symmetry.
 There are   183 symmetry adapted cartesian basis functions of B   symmetry.
 There are   166 symmetry adapted basis functions of A   symmetry.
 There are   162 symmetry adapted basis functions of B   symmetry.
   328 basis functions,   725 primitive gaussians,   374 cartesian basis functions
    31 alpha electrons       31 beta electrons
       nuclear repulsion energy       320.7392817687 Hartrees.
 NAtoms=   15 NActive=   15 NUniq=    8 SFac= 3.52D+00 NAtFMM=   60 NAOKFM=F Big=F
 Integral buffers will be    131072 words long.
 Raffenetti 2 integral format.
 Two-electron integral symmetry is turned on.
 One-electron integrals computed using PRISM.
 NBasis=   328 RedAO= T EigKep=  6.20D-04  NBF=   166   162
 NBsUse=   328 1.00D-06 EigRej= -1.00D+00 NBFU=   166   162
 Initial guess from the checkpoint file:  "ZnEt2.chk"
 B after Tr=     0.000000    0.000000    0.000000
         Rot=    1.000000    0.000000    0.000000    0.000000 Ang=   0.00 deg.
 Initial guess orbital symmetries:
 Alpha Orbitals:
       Occupied  (A) (A) (B) (A) (B) (B) (A) (A) (B) (A) (B) (A)
                 (B) (A) (B) (A) (B) (A) (B) (A) (B) (A) (A) (B)
                 (A) (B) (A) (B) (A) (A) (B)
       Virtual   (B) (B) (A) (A) (B) (A) (A) (B) (A) (B) (A) (B)
                 (B) (A) (A) (B) (A) (B) (A) (B) (B) (A) (A) (B)
                 (B) (A) (B) (A) (B) (B) (A) (A) (B) (A) (B) (B)
                 (A) (A) (B) (A) (B) (A) (A) (A) (B) (B) (A) (B)
                 (A) (B) (B) (A) (A) (B) (A) (B) (A) (B) (A) (B)
                 (B) (A) (B) (A) (B) (B) (A) (A) (B) (A) (B) (B)
                 (A) (B) (A) (A) (A) (B) (B) (B) (A) (B) (A) (A)
                 (A) (B) (A) (B) (A) (A) (B) (A) (B) (B) (A) (A)
                 (B) (B) (A) (A) (B) (B) (A) (B) (A) (B) (B) (A)
                 (B) (A) (A) (B) (A) (B) (A) (B) (B) (A) (A) (B)
                 (A) (B) (B) (A) (A) (B) (B) (A) (A) (A) (B) (B)
                 (B) (A) (B) (A) (B) (A) (A) (A) (B) (B) (B) (A)
                 (A) (A) (B) (B) (B) (A) (B) (A) (A) (B) (A) (B)
                 (B) (A) (A) (B) (A) (B) (A) (B) (B) (A) (A) (B)
                 (A) (A) (B) (B) (A) (A) (B) (A) (B) (B) (B) (A)
                 (B) (A) (A) (B) (A) (B) (B) (A) (B) (B) (A) (A)
                 (A) (A) (B) (B) (A) (B) (A) (A) (B) (B) (B) (A)
                 (A) (B) (A) (B) (A) (A) (B) (A) (B) (B) (A) (A)
                 (B) (A) (B) (A) (B) (B) (A) (A) (B) (B) (A) (B)
                 (A) (B) (A) (B) (A) (B) (A) (B) (A) (A) (B) (B)
                 (A) (A) (B) (B) (A) (B) (A) (B) (A) (B) (A) (B)
                 (B) (A) (B) (A) (B) (A) (B) (A) (B) (A) (A) (B)
                 (A) (B) (B) (A) (A) (B) (B) (A) (B) (A) (B) (A)
                 (A) (A) (B) (B) (A) (A) (B) (B) (A) (A) (B) (B)
                 (A) (B) (B) (A) (A) (B) (B) (A) (A)
 Beta  Orbitals:
       Occupied  (A) (A) (A) (B) (B) (A) (B) (A) (B) (A) (B) (A)
                 (B) (A) (B) (A) (B) (A) (B) (A) (B) (A) (A) (B)
                 (B) (A) (A) (B) (A) (B) (A)
       Virtual   (B) (B) (A) (A) (B) (A) (A) (B) (B) (A) (A) (B)
                 (B) (A) (A) (B) (A) (B) (A) (B) (A) (B) (B) (A)
                 (B) (A) (B) (A) (B) (A) (B) (A) (A) (B) (B) (B)
                 (A) (A) (B) (B) (A) (A) (A) (B) (A) (B) (A) (B)
                 (A) (B) (B) (A) (A) (B) (A) (B) (A) (B) (A) (B)
                 (B) (A) (B) (A) (B) (B) (A) (A) (B) (A) (B) (B)
                 (A) (B) (A) (A) (A) (B) (B) (B) (A) (B) (A) (A)
                 (A) (A) (B) (B) (A) (B) (A) (A) (B) (B) (A) (A)
                 (B) (B) (A) (A) (B) (B) (A) (B) (A) (B) (B) (A)
                 (B) (A) (A) (B) (A) (B) (A) (B) (A) (B) (A) (B)
                 (A) (B) (B) (A) (A) (B) (B) (A) (A) (A) (B) (B)
                 (B) (A) (B) (A) (B) (A) (A) (A) (B) (B) (B) (A)
                 (A) (A) (B) (B) (B) (A) (B) (A) (A) (B) (A) (B)
                 (B) (A) (A) (B) (A) (B) (A) (B) (B) (A) (A) (B)
                 (A) (A) (B) (B) (A) (A) (B) (A) (B) (B) (A) (B)
                 (B) (A) (B) (A) (A) (B) (B) (A) (B) (B) (A) (A)
                 (A) (A) (B) (A) (B) (B) (A) (A) (B) (B) (B) (A)
                 (A) (B) (A) (B) (A) (A) (B) (A) (B) (B) (A) (A)
                 (B) (A) (B) (A) (B) (B) (A) (A) (B) (B) (A) (B)
                 (A) (B) (A) (B) (A) (B) (A) (B) (A) (A) (B) (B)
                 (A) (A) (B) (B) (A) (B) (A) (B) (A) (B) (A) (B)
                 (B) (A) (B) (A) (B) (A) (B) (A) (B) (A) (A) (B)
                 (A) (B) (B) (A) (A) (B) (B) (A) (B) (A) (B) (A)
                 (A) (A) (B) (B) (A) (A) (B) (B) (A) (A) (B) (B)
                 (A) (B) (B) (A) (A) (B) (B) (A) (A)
 Initial guess <Sx>= 0.0000 <Sy>= 0.0000 <Sz>= 0.0000 <S**2>= 0.3627 S= 0.2828
 Keep R1 and R2 ints in memory in symmetry-blocked form, NReq=2184082506.
 Requested convergence on RMS density matrix=1.00D-08 within  64 cycles.
 Requested convergence on MAX density matrix=1.00D-06.
 Requested convergence on             energy=1.00D-06.
 No special actions if energy rises.
 SCF Done:  E(UHF) =  -1934.29993950     A.U. after   19 cycles
            NFock= 19  Conv=0.42D-08     -V/T= 1.9999
 <Sx>= 0.0000 <Sy>= 0.0000 <Sz>= 0.0000 <S**2>= 0.0000 S= 0.0000
 <L.S>= 0.000000000000E+00
 Annihilation of the first spin contaminant:
 S**2 before annihilation     0.0000,   after     0.0000
 QCSCF skips out because SCF is already converged.

 **********************************************************************

            Population analysis using the SCF density.

 **********************************************************************

 Orbital symmetries:
 Alpha Orbitals:
       Occupied  (A) (A) (B) (A) (B) (A) (B) (A) (B) (A) (B) (B)
                 (A) (A) (B) (A) (B) (A) (B) (A) (B) (A) (A) (B)
                 (A) (B) (A) (B) (A) (B) (A)
       Virtual   (B) (B) (A) (A) (B) (A) (A) (B) (B) (A) (A) (B)
                 (B) (A) (A) (B) (A) (B) (A) (B) (A) (B) (B) (A)
                 (B) (A) (B) (A) (B) (A) (B) (A) (A) (B) (B) (B)
                 (A) (B) (A) (B) (A) (A) (A) (A) (B) (B) (A) (B)
                 (A) (B) (B) (A) (A) (B) (A) (B) (A) (B) (A) (B)
                 (B) (A) (B) (A) (B) (B) (A) (A) (B) (A) (B) (B)
                 (A) (B) (A) (A) (A) (B) (B) (B) (A) (B) (A) (A)
                 (A) (A) (B) (B) (A) (B) (A) (A) (B) (B) (A) (A)
                 (B) (B) (A) (A) (B) (B) (A) (B) (A) (B) (B) (A)
                 (B) (A) (A) (B) (A) (B) (A) (B) (B) (A) (B) (A)
                 (A) (B) (B) (A) (A) (B) (A) (B) (A) (A) (B) (B)
                 (B) (A) (B) (A) (B) (A) (A) (A) (B) (B) (B) (A)
                 (A) (A) (B) (B) (B) (A) (B) (A) (B) (A) (B) (A)
                 (B) (A) (A) (B) (A) (B) (A) (B) (B) (A) (A) (B)
                 (A) (A) (B) (B) (A) (A) (B) (A) (B) (B) (B) (A)
                 (B) (A) (A) (B) (A) (B) (B) (A) (B) (B) (A) (A)
                 (A) (A) (B) (B) (A) (A) (B) (B) (A) (B) (B) (A)
                 (A) (B) (A) (B) (A) (A) (B) (A) (B) (B) (A) (A)
                 (B) (A) (B) (A) (B) (B) (A) (A) (B) (A) (B) (B)
                 (A) (A) (B) (B) (A) (B) (A) (B) (A) (A) (B) (B)
                 (A) (A) (B) (B) (B) (A) (A) (B) (A) (A) (B) (B)
                 (A) (B) (B) (A) (A) (B) (B) (A) (B) (A) (A) (B)
                 (A) (B) (B) (A) (A) (B) (B) (A) (B) (A) (B) (A)
                 (A) (A) (B) (B) (A) (A) (B) (B) (A) (A) (B) (B)
                 (A) (B) (A) (B) (A) (B) (A) (B) (A)
 Beta  Orbitals:
       Occupied  (A) (A) (B) (A) (B) (A) (B) (A) (B) (A) (B) (B)
                 (A) (A) (B) (A) (B) (A) (B) (A) (B) (A) (A) (B)
                 (A) (B) (A) (B) (A) (B) (A)
       Virtual   (B) (B) (A) (A) (B) (A) (A) (B) (B) (A) (A) (B)
                 (B) (A) (A) (B) (A) (B) (A) (B) (A) (B) (B) (A)
                 (B) (A) (B) (A) (B) (A) (B) (A) (A) (B) (B) (B)
                 (A) (B) (A) (B) (A) (A) (A) (A) (B) (B) (A) (B)
                 (A) (B) (B) (A) (A) (B) (A) (B) (A) (B) (A) (B)
                 (B) (A) (B) (A) (B) (B) (A) (A) (B) (A) (B) (B)
                 (A) (B) (A) (A) (A) (B) (B) (B) (A) (B) (A) (A)
                 (A) (A) (B) (B) (A) (B) (A) (A) (B) (B) (A) (A)
                 (B) (B) (A) (A) (B) (B) (A) (B) (A) (B) (B) (A)
                 (B) (A) (A) (B) (A) (B) (A) (B) (B) (A) (B) (A)
                 (A) (B) (B) (A) (A) (B) (A) (B) (A) (A) (B) (B)
                 (B) (A) (B) (A) (B) (A) (A) (A) (B) (B) (B) (A)
                 (A) (A) (B) (B) (B) (A) (B) (A) (B) (A) (B) (A)
                 (B) (A) (A) (B) (A) (B) (A) (B) (B) (A) (A) (B)
                 (A) (A) (B) (B) (A) (A) (B) (A) (B) (B) (B) (A)
                 (B) (A) (A) (B) (A) (B) (B) (A) (B) (B) (A) (A)
                 (A) (A) (B) (B) (A) (A) (B) (B) (A) (B) (B) (A)
                 (A) (B) (A) (B) (A) (A) (B) (A) (B) (B) (A) (A)
                 (B) (A) (B) (A) (B) (B) (A) (A) (B) (A) (B) (B)
                 (A) (A) (B) (B) (A) (B) (A) (B) (A) (A) (B) (B)
                 (A) (A) (B) (B) (B) (A) (A) (B) (A) (A) (B) (B)
                 (A) (B) (B) (A) (A) (B) (B) (A) (B) (A) (A) (B)
                 (A) (B) (B) (A) (A) (B) (B) (A) (B) (A) (B) (A)
                 (A) (A) (B) (B) (A) (A) (B) (B) (A) (A) (B) (B)
                 (A) (B) (A) (B) (A) (B) (A) (B) (A)
 The electronic state is 1-A.
 Alpha  occ. eigenvalues -- -353.77026 -44.82880 -39.39257 -39.39249 -39.39059
 Alpha  occ. eigenvalues --  -11.69279 -11.69278 -11.58224 -11.58224  -6.10709
 Alpha  occ. eigenvalues --   -4.31355  -4.30682  -4.30672  -1.41639  -1.40307
 Alpha  occ. eigenvalues --   -1.27076  -1.25904  -1.25595  -1.24986  -1.24981
 Alpha  occ. eigenvalues --   -1.20991  -1.19231  -0.99949  -0.99274  -0.93526
 Alpha  occ. eigenvalues --   -0.93284  -0.89735  -0.89288  -0.85973  -0.85852
 Alpha  occ. eigenvalues --   -0.75485
 Alpha virt. eigenvalues --   -0.51830  -0.26220  -0.26058  -0.24227  -0.16269
 Alpha virt. eigenvalues --   -0.12599  -0.11634  -0.10692  -0.09611  -0.09543
 Alpha virt. eigenvalues --   -0.09327  -0.07424  -0.05758  -0.04753  -0.03555
 Alpha virt. eigenvalues --   -0.02826  -0.00714   0.00102   0.01457   0.05793
 Alpha virt. eigenvalues --    0.06581   0.07087   0.08021   0.08154   0.09008
 Alpha virt. eigenvalues --    0.09346   0.13135   0.14564   0.20596   0.23320
 Alpha virt. eigenvalues --    0.24568   0.25205   0.26126   0.26722   0.27409
 Alpha virt. eigenvalues --    0.27669   0.29519   0.31305   0.31626   0.33381
 Alpha virt. eigenvalues --    0.33570   0.35384   0.35717   0.37455   0.37497
 Alpha virt. eigenvalues --    0.39166   0.40328   0.40917   0.44773   0.46059
 Alpha virt. eigenvalues --    0.52107   0.53971   0.55811   0.59198   0.60408
 Alpha virt. eigenvalues --    0.62163   0.64023   0.66066   0.68804   0.68971
 Alpha virt. eigenvalues --    0.70479   0.75985   0.76861   0.78539   0.79995
 Alpha virt. eigenvalues --    0.82574   0.82932   0.87969   0.88377   0.89656
 Alpha virt. eigenvalues --    0.91162   0.92869   0.93333   0.93598   0.94470
 Alpha virt. eigenvalues --    0.95313   0.98091   1.00016   1.01495   1.01999
 Alpha virt. eigenvalues --    1.02043   1.03181   1.04293   1.07128   1.09425
 Alpha virt. eigenvalues --    1.12103   1.12559   1.15302   1.16204   1.17591
 Alpha virt. eigenvalues --    1.17821   1.21924   1.22372   1.24078   1.25419
 Alpha virt. eigenvalues --    1.27291   1.28638   1.29240   1.35324   1.37162
 Alpha virt. eigenvalues --    1.38433   1.41078   1.45702   1.47264   1.54474
 Alpha virt. eigenvalues --    1.55956   2.12268   2.14731   2.15129   2.18310
 Alpha virt. eigenvalues --    2.22364   2.27587   2.28353   2.29223   2.30988
 Alpha virt. eigenvalues --    2.34056   2.36892   2.37510   2.39402   2.39889
 Alpha virt. eigenvalues --    2.46635   2.47478   2.49266   2.52170   2.53325
 Alpha virt. eigenvalues --    2.53906   2.59419   2.59893   2.62814   2.65953
 Alpha virt. eigenvalues --    2.66961   2.70173   2.70905   2.72309   2.72678
 Alpha virt. eigenvalues --    2.73716   2.76172   2.77011   2.77734   2.80777
 Alpha virt. eigenvalues --    2.81837   2.83584   2.87256   2.90976   2.91408
 Alpha virt. eigenvalues --    2.91877   2.93488   2.93702   2.95203   2.97002
 Alpha virt. eigenvalues --    2.99601   3.01615   3.03658   3.03736   3.05340
 Alpha virt. eigenvalues --    3.05650   3.07256   3.08070   3.11220   3.11754
 Alpha virt. eigenvalues --    3.14414   3.16627   3.18529   3.20501   3.22790
 Alpha virt. eigenvalues --    3.24762   3.28899   3.30813   3.30922   3.36785
 Alpha virt. eigenvalues --    3.38879   3.40428   3.40898   3.41487   3.42121
 Alpha virt. eigenvalues --    3.43893   3.45377   3.48018   3.49794   3.50156
 Alpha virt. eigenvalues --    3.59177   3.60482   3.61366   3.61972   3.68484
 Alpha virt. eigenvalues --    3.71613   3.72820   3.73457   3.73961   3.75584
 Alpha virt. eigenvalues --    3.76461   3.78128   3.80212   3.83230   3.83435
 Alpha virt. eigenvalues --    3.84248   3.84378   3.89733   3.92606   3.94213
 Alpha virt. eigenvalues --    3.95315   3.95329   3.97257   3.97387   4.00912
 Alpha virt. eigenvalues --    4.02404   4.02718   4.02808   4.05217   4.06185
 Alpha virt. eigenvalues --    4.06325   4.09638   4.10368   4.10906   4.14498
 Alpha virt. eigenvalues --    4.18697   4.19089   4.21802   4.22455   4.22597
 Alpha virt. eigenvalues --    4.24289   4.28671   4.29782   4.30170   4.31665
 Alpha virt. eigenvalues --    4.38181   4.38642   4.44093   4.54367   4.55423
 Alpha virt. eigenvalues --    4.55556   4.62463   4.62960   4.63542   4.68737
 Alpha virt. eigenvalues --    4.75653   4.78955   4.79639   4.79647   4.80317
 Alpha virt. eigenvalues --    4.83663   4.84780   4.84958   4.86007   4.91901
 Alpha virt. eigenvalues --    4.92447   4.92695   5.03702   5.05937   5.14087
 Alpha virt. eigenvalues --    5.14837   5.16583   5.20353   5.20523   5.25904
 Alpha virt. eigenvalues --    5.27261   5.32754   5.32805   5.34401   5.34497
 Alpha virt. eigenvalues --    5.36898   5.38065   5.40414   5.41515   5.44560
 Alpha virt. eigenvalues --    5.45250   5.88214   5.91125   5.93343   5.93780
 Alpha virt. eigenvalues --    5.94053   5.94067  10.46403  10.48840  10.73537
 Alpha virt. eigenvalues --   10.77242  11.21392  11.77929  11.87687  13.41651
 Alpha virt. eigenvalues --   13.44459  15.77872  15.77887  15.79494  15.79896
 Alpha virt. eigenvalues --   15.85702  15.86130  15.99395  16.46400  16.46430
 Alpha virt. eigenvalues --   16.46461  16.46462  16.46588  16.46588  16.46757
 Alpha virt. eigenvalues --   16.46758  16.47698
  Beta  occ. eigenvalues -- -353.77026 -44.82880 -39.39257 -39.39249 -39.39059
  Beta  occ. eigenvalues --  -11.69279 -11.69278 -11.58224 -11.58224  -6.10709
  Beta  occ. eigenvalues --   -4.31355  -4.30682  -4.30672  -1.41639  -1.40307
  Beta  occ. eigenvalues --   -1.27076  -1.25904  -1.25595  -1.24986  -1.24981
  Beta  occ. eigenvalues --   -1.20991  -1.19231  -0.99949  -0.99274  -0.93526
  Beta  occ. eigenvalues --   -0.93284  -0.89735  -0.89288  -0.85973  -0.85852
  Beta  occ. eigenvalues --   -0.75485
  Beta virt. eigenvalues --   -0.51830  -0.26220  -0.26058  -0.24227  -0.16269
  Beta virt. eigenvalues --   -0.12599  -0.11634  -0.10692  -0.09611  -0.09543
  Beta virt. eigenvalues --   -0.09327  -0.07424  -0.05758  -0.04753  -0.03555
  Beta virt. eigenvalues --   -0.02826  -0.00714   0.00102   0.01457   0.05793
  Beta virt. eigenvalues --    0.06581   0.07087   0.08021   0.08154   0.09008
  Beta virt. eigenvalues --    0.09346   0.13135   0.14564   0.20596   0.23320
  Beta virt. eigenvalues --    0.24568   0.25205   0.26126   0.26722   0.27409
  Beta virt. eigenvalues --    0.27669   0.29519   0.31305   0.31626   0.33381
  Beta virt. eigenvalues --    0.33570   0.35384   0.35717   0.37455   0.37497
  Beta virt. eigenvalues --    0.39166   0.40328   0.40917   0.44773   0.46059
  Beta virt. eigenvalues --    0.52107   0.53971   0.55811   0.59198   0.60408
  Beta virt. eigenvalues --    0.62163   0.64023   0.66066   0.68804   0.68971
  Beta virt. eigenvalues --    0.70479   0.75985   0.76861   0.78539   0.79995
  Beta virt. eigenvalues --    0.82574   0.82932   0.87969   0.88377   0.89656
  Beta virt. eigenvalues --    0.91162   0.92869   0.93333   0.93598   0.94470
  Beta virt. eigenvalues --    0.95313   0.98091   1.00016   1.01495   1.01999
  Beta virt. eigenvalues --    1.02043   1.03181   1.04293   1.07128   1.09425
  Beta virt. eigenvalues --    1.12103   1.12559   1.15302   1.16204   1.17591
  Beta virt. eigenvalues --    1.17821   1.21924   1.22372   1.24078   1.25419
  Beta virt. eigenvalues --    1.27291   1.28638   1.29240   1.35324   1.37162
  Beta virt. eigenvalues --    1.38433   1.41078   1.45702   1.47264   1.54474
  Beta virt. eigenvalues --    1.55956   2.12268   2.14731   2.15129   2.18310
  Beta virt. eigenvalues --    2.22364   2.27587   2.28353   2.29223   2.30988
  Beta virt. eigenvalues --    2.34056   2.36892   2.37510   2.39402   2.39889
  Beta virt. eigenvalues --    2.46635   2.47478   2.49266   2.52170   2.53325
  Beta virt. eigenvalues --    2.53906   2.59419   2.59893   2.62814   2.65953
  Beta virt. eigenvalues --    2.66961   2.70173   2.70905   2.72309   2.72678
  Beta virt. eigenvalues --    2.73716   2.76172   2.77011   2.77734   2.80777
  Beta virt. eigenvalues --    2.81837   2.83584   2.87256   2.90976   2.91408
  Beta virt. eigenvalues --    2.91877   2.93488   2.93702   2.95203   2.97002
  Beta virt. eigenvalues --    2.99601   3.01615   3.03658   3.03736   3.05340
  Beta virt. eigenvalues --    3.05650   3.07256   3.08070   3.11220   3.11754
  Beta virt. eigenvalues --    3.14414   3.16627   3.18529   3.20501   3.22790
  Beta virt. eigenvalues --    3.24762   3.28899   3.30813   3.30922   3.36785
  Beta virt. eigenvalues --    3.38879   3.40428   3.40898   3.41487   3.42121
  Beta virt. eigenvalues --    3.43893   3.45377   3.48018   3.49794   3.50156
  Beta virt. eigenvalues --    3.59177   3.60482   3.61366   3.61972   3.68484
  Beta virt. eigenvalues --    3.71613   3.72820   3.73457   3.73961   3.75584
  Beta virt. eigenvalues --    3.76461   3.78128   3.80212   3.83230   3.83435
  Beta virt. eigenvalues --    3.84248   3.84378   3.89733   3.92606   3.94213
  Beta virt. eigenvalues --    3.95315   3.95329   3.97257   3.97387   4.00912
  Beta virt. eigenvalues --    4.02404   4.02718   4.02808   4.05217   4.06185
  Beta virt. eigenvalues --    4.06325   4.09638   4.10368   4.10906   4.14498
  Beta virt. eigenvalues --    4.18697   4.19089   4.21802   4.22455   4.22597
  Beta virt. eigenvalues --    4.24289   4.28671   4.29782   4.30170   4.31665
  Beta virt. eigenvalues --    4.38181   4.38642   4.44093   4.54367   4.55423
  Beta virt. eigenvalues --    4.55556   4.62463   4.62960   4.63542   4.68737
  Beta virt. eigenvalues --    4.75653   4.78955   4.79639   4.79647   4.80317
  Beta virt. eigenvalues --    4.83663   4.84780   4.84958   4.86007   4.91901
  Beta virt. eigenvalues --    4.92447   4.92695   5.03702   5.05937   5.14087
  Beta virt. eigenvalues --    5.14837   5.16583   5.20353   5.20523   5.25904
  Beta virt. eigenvalues --    5.27261   5.32754   5.32805   5.34401   5.34497
  Beta virt. eigenvalues --    5.36898   5.38065   5.40414   5.41515   5.44560
  Beta virt. eigenvalues --    5.45250   5.88214   5.91125   5.93343   5.93780
  Beta virt. eigenvalues --    5.94053   5.94067  10.46403  10.48840  10.73537
  Beta virt. eigenvalues --   10.77242  11.21392  11.77929  11.87687  13.41651
  Beta virt. eigenvalues --   13.44459  15.77872  15.77887  15.79494  15.79896
  Beta virt. eigenvalues --   15.85702  15.86130  15.99395  16.46400  16.46430
  Beta virt. eigenvalues --   16.46461  16.46462  16.46588  16.46588  16.46757
  Beta virt. eigenvalues --   16.46758  16.47698
          Condensed to atoms (all electrons):
               1          2          3          4          5          6
     1  Zn  28.801804   0.192288  -0.024830  -0.006756  -0.006104   0.005756
     2  C    0.192288   4.934472   0.333210   0.399646   0.399670  -0.002112
     3  C   -0.024830   0.333210   4.794005  -0.024217  -0.024345   0.376158
     4  H   -0.006756   0.399646  -0.024217   0.431514  -0.020879  -0.003581
     5  H   -0.006104   0.399670  -0.024345  -0.020879   0.430715  -0.003644
     6  H    0.005756  -0.002112   0.376158  -0.003581  -0.003644   0.422305
     7  H   -0.001470  -0.026167   0.412493  -0.003424   0.003537  -0.016484
     8  H   -0.001442  -0.026914   0.412386   0.003600  -0.003488  -0.016355
     9  C    0.192288   0.005721  -0.001145  -0.000375  -0.000425   0.000033
    10  C   -0.024830  -0.001145   0.000042   0.000018   0.000027  -0.000002
    11  H   -0.006756  -0.000375   0.000018   0.000001   0.000014  -0.000001
    12  H   -0.006104  -0.000425   0.000027   0.000014   0.000011  -0.000001
    13  H    0.005756   0.000033  -0.000002  -0.000001  -0.000001   0.000000
    14  H   -0.001470  -0.000070  -0.000001   0.000012   0.000006   0.000000
    15  H   -0.001442  -0.000073   0.000003  -0.000003   0.000028   0.000000
               7          8          9         10         11         12
     1  Zn  -0.001470  -0.001442   0.192288  -0.024830  -0.006756  -0.006104
     2  C   -0.026167  -0.026914   0.005721  -0.001145  -0.000375  -0.000425
     3  C    0.412493   0.412386  -0.001145   0.000042   0.000018   0.000027
     4  H   -0.003424   0.003600  -0.000375   0.000018   0.000001   0.000014
     5  H    0.003537  -0.003488  -0.000425   0.000027   0.000014   0.000011
     6  H   -0.016484  -0.016355   0.000033  -0.000002  -0.000001  -0.000001
     7  H    0.491361  -0.026566  -0.000070  -0.000001   0.000012   0.000006
     8  H   -0.026566   0.492932  -0.000073   0.000003  -0.000003   0.000028
     9  C   -0.000070  -0.000073   4.934472   0.333210   0.399646   0.399670
    10  C   -0.000001   0.000003   0.333210   4.794005  -0.024217  -0.024345
    11  H    0.000012  -0.000003   0.399646  -0.024217   0.431514  -0.020879
    12  H    0.000006   0.000028   0.399670  -0.024345  -0.020879   0.430715
    13  H    0.000000   0.000000  -0.002112   0.376158  -0.003581  -0.003644
    14  H    0.000000   0.000001  -0.026167   0.412493  -0.003424   0.003537
    15  H    0.000001  -0.000002  -0.026914   0.412386   0.003600  -0.003488
              13         14         15
     1  Zn   0.005756  -0.001470  -0.001442
     2  C    0.000033  -0.000070  -0.000073
     3  C   -0.000002  -0.000001   0.000003
     4  H   -0.000001   0.000012  -0.000003
     5  H   -0.000001   0.000006   0.000028
     6  H    0.000000   0.000000   0.000000
     7  H    0.000000   0.000000   0.000001
     8  H    0.000000   0.000001  -0.000002
     9  C   -0.002112  -0.026167  -0.026914
    10  C    0.376158   0.412493   0.412386
    11  H   -0.003581  -0.003424   0.003600
    12  H   -0.003644   0.003537  -0.003488
    13  H    0.422305  -0.016484  -0.016355
    14  H   -0.016484   0.491361  -0.026566
    15  H   -0.016355  -0.026566   0.492932
          Atomic-Atomic Spin Densities.
               1          2          3          4          5          6
     1  Zn   0.000000   0.000000   0.000000   0.000000   0.000000   0.000000
     2  C    0.000000   0.000000   0.000000   0.000000   0.000000   0.000000
     3  C    0.000000   0.000000   0.000000   0.000000   0.000000   0.000000
     4  H    0.000000   0.000000   0.000000   0.000000   0.000000   0.000000
     5  H    0.000000   0.000000   0.000000   0.000000   0.000000   0.000000
     6  H    0.000000   0.000000   0.000000   0.000000   0.000000   0.000000
     7  H    0.000000   0.000000   0.000000   0.000000   0.000000   0.000000
     8  H    0.000000   0.000000   0.000000   0.000000   0.000000   0.000000
     9  C    0.000000   0.000000   0.000000   0.000000   0.000000   0.000000
    10  C    0.000000   0.000000   0.000000   0.000000   0.000000   0.000000
    11  H    0.000000   0.000000   0.000000   0.000000   0.000000   0.000000
    12  H    0.000000   0.000000   0.000000   0.000000   0.000000   0.000000
    13  H    0.000000   0.000000   0.000000   0.000000   0.000000   0.000000
    14  H    0.000000   0.000000   0.000000   0.000000   0.000000   0.000000
    15  H    0.000000   0.000000   0.000000   0.000000   0.000000   0.000000
               7          8          9         10         11         12
     1  Zn   0.000000   0.000000   0.000000   0.000000   0.000000   0.000000
     2  C    0.000000   0.000000   0.000000   0.000000   0.000000   0.000000
     3  C    0.000000   0.000000   0.000000   0.000000   0.000000   0.000000
     4  H    0.000000   0.000000   0.000000   0.000000   0.000000   0.000000
     5  H    0.000000   0.000000   0.000000   0.000000   0.000000   0.000000
     6  H    0.000000   0.000000   0.000000   0.000000   0.000000   0.000000
     7  H    0.000000   0.000000   0.000000   0.000000   0.000000   0.000000
     8  H    0.000000   0.000000   0.000000   0.000000   0.000000   0.000000
     9  C    0.000000   0.000000   0.000000   0.000000   0.000000   0.000000
    10  C    0.000000   0.000000   0.000000   0.000000   0.000000   0.000000
    11  H    0.000000   0.000000   0.000000   0.000000   0.000000   0.000000
    12  H    0.000000   0.000000   0.000000   0.000000   0.000000   0.000000
    13  H    0.000000   0.000000   0.000000   0.000000   0.000000   0.000000
    14  H    0.000000   0.000000   0.000000   0.000000   0.000000   0.000000
    15  H    0.000000   0.000000   0.000000   0.000000   0.000000   0.000000
              13         14         15
     1  Zn   0.000000   0.000000   0.000000
     2  C    0.000000   0.000000   0.000000
     3  C    0.000000   0.000000   0.000000
     4  H    0.000000   0.000000   0.000000
     5  H    0.000000   0.000000   0.000000
     6  H    0.000000   0.000000   0.000000
     7  H    0.000000   0.000000   0.000000
     8  H    0.000000   0.000000   0.000000
     9  C    0.000000   0.000000   0.000000
    10  C    0.000000   0.000000   0.000000
    11  H    0.000000   0.000000   0.000000
    12  H    0.000000   0.000000   0.000000
    13  H    0.000000   0.000000   0.000000
    14  H    0.000000   0.000000   0.000000
    15  H    0.000000   0.000000   0.000000
 Mulliken charges and spin densities:
               1          2
     1  Zn   0.883315   0.000000
     2  C   -0.207760   0.000000
     3  C   -0.253801   0.000000
     4  H    0.224431   0.000000
     5  H    0.224878   0.000000
     6  H    0.237927   0.000000
     7  H    0.166772   0.000000
     8  H    0.165894   0.000000
     9  C   -0.207760   0.000000
    10  C   -0.253801   0.000000
    11  H    0.224431   0.000000
    12  H    0.224878   0.000000
    13  H    0.237927   0.000000
    14  H    0.166772   0.000000
    15  H    0.165894   0.000000
 Sum of Mulliken charges =   2.00000   0.00000
 Mulliken charges and spin densities with hydrogens summed into heavy atoms:
               1          2
     1  Zn   0.883315   0.000000
     2  C    0.241550   0.000000
     3  C    0.316793   0.000000
     9  C    0.241550   0.000000
    10  C    0.316793   0.000000
 Electronic spatial extent (au):  <R**2>=            904.5303
 Charge=              2.0000 electrons
 Dipole moment (field-independent basis, Debye):
    X=              0.0000    Y=              0.0000    Z=              0.1092  Tot=              0.1092
 Quadrupole moment (field-independent basis, Debye-Ang):
   XX=            -26.6855   YY=             11.7766   ZZ=            -32.6389
   XY=             10.4729   XZ=              0.0000   YZ=              0.0000
 Traceless Quadrupole moment (field-independent basis, Debye-Ang):
   XX=            -10.8363   YY=             27.6259   ZZ=            -16.7896
   XY=             10.4729   XZ=              0.0000   YZ=              0.0000
 Octapole moment (field-independent basis, Debye-Ang**2):
  XXX=              0.0000  YYY=              0.0000  ZZZ=              3.5670  XYY=              0.0000
  XXY=              0.0000  XXZ=             -1.2629  XZZ=              0.0000  YZZ=              0.0000
  YYZ=             -2.8341  XYZ=             -3.6248
 Hexadecapole moment (field-independent basis, Debye-Ang**3):
 XXXX=           -186.1437 YYYY=           -418.7424 ZZZZ=            -55.3980 XXXY=           -103.5370
 XXXZ=              0.0000 YYYX=            -21.4451 YYYZ=              0.0000 ZZZX=              0.0000
 ZZZY=              0.0000 XXYY=           -105.3369 XXZZ=            -38.6003 YYZZ=           -138.8798
 XXYZ=              0.0000 YYXZ=              0.0000 ZZXY=            -46.4807
 N-N= 3.207392817687D+02 E-N=-5.240528123135D+03  KE= 1.934429103613D+03
 Symmetry A    KE= 1.418368874615D+03
 Symmetry B    KE= 5.160602289985D+02
                          Isotropic Fermi Contact Couplings
        Atom                 a.u.       MegaHertz       Gauss      10(-4) cm-1
     1  Zn(67)             0.00000       0.00020       0.00007       0.00007
     2  C(13)              0.00000      -0.00008      -0.00003      -0.00003
     3  C(13)              0.00000       0.00007       0.00003       0.00002
     4  H(1)               0.00000       0.00029       0.00010       0.00010
     5  H(1)               0.00000      -0.00046      -0.00017      -0.00015
     6  H(1)               0.00000       0.00012       0.00004       0.00004
     7  H(1)               0.00000      -0.00020      -0.00007      -0.00007
     8  H(1)               0.00000      -0.00002      -0.00001      -0.00001
     9  C(13)              0.00000      -0.00008      -0.00003      -0.00003
    10  C(13)              0.00000       0.00007       0.00003       0.00002
    11  H(1)               0.00000       0.00029       0.00010       0.00010
    12  H(1)               0.00000      -0.00046      -0.00017      -0.00015
    13  H(1)               0.00000       0.00012       0.00004       0.00004
    14  H(1)               0.00000      -0.00020      -0.00007      -0.00007
    15  H(1)               0.00000      -0.00002      -0.00001      -0.00001
 --------------------------------------------------------
       Center         ----  Spin Dipole Couplings  ----
                      3XX-RR        3YY-RR        3ZZ-RR
 --------------------------------------------------------
     1   Atom        0.000001     -0.000001      0.000000
     2   Atom        0.000000      0.000000      0.000000
     3   Atom        0.000000      0.000000      0.000000
     4   Atom        0.000000      0.000000      0.000000
     5   Atom        0.000000      0.000000      0.000000
     6   Atom        0.000000      0.000000      0.000000
     7   Atom        0.000000      0.000000      0.000000
     8   Atom        0.000000      0.000000      0.000000
     9   Atom        0.000000      0.000000      0.000000
    10   Atom        0.000000      0.000000      0.000000
    11   Atom        0.000000      0.000000      0.000000
    12   Atom        0.000000      0.000000      0.000000
    13   Atom        0.000000      0.000000      0.000000
    14   Atom        0.000000      0.000000      0.000000
    15   Atom        0.000000      0.000000      0.000000
 --------------------------------------------------------
                        XY            XZ            YZ
 --------------------------------------------------------
     1   Atom        0.000000      0.000000      0.000000
     2   Atom        0.000001      0.000000      0.000002
     3   Atom        0.000000      0.000000      0.000000
     4   Atom        0.000000      0.000000      0.000000
     5   Atom        0.000000      0.000000      0.000000
     6   Atom        0.000000      0.000000      0.000000
     7   Atom        0.000000      0.000000      0.000000
     8   Atom        0.000000      0.000000      0.000000
     9   Atom        0.000001      0.000000     -0.000002
    10   Atom        0.000000      0.000000      0.000000
    11   Atom        0.000000      0.000000      0.000000
    12   Atom        0.000000      0.000000      0.000000
    13   Atom        0.000000      0.000000      0.000000
    14   Atom        0.000000      0.000000      0.000000
    15   Atom        0.000000      0.000000      0.000000
 --------------------------------------------------------


 ---------------------------------------------------------------------------------
              Anisotropic Spin Dipole Couplings in Principal Axis System
 ---------------------------------------------------------------------------------

       Atom             a.u.   MegaHertz   Gauss  10(-4) cm-1        Axes

              Baa     0.0000     0.000     0.000     0.000  0.2662  0.9639  0.0000
     1 Zn(67) Bbb     0.0000     0.000     0.000     0.000  0.0000  0.0000  1.0000
              Bcc     0.0000     0.000     0.000     0.000  0.9639 -0.2662  0.0000
 
              Baa     0.0000     0.000     0.000     0.000 -0.3061  0.7548 -0.5801
     2 C(13)  Bbb     0.0000     0.000     0.000     0.000  0.8653 -0.0335 -0.5002
              Bcc     0.0000     0.000     0.000     0.000  0.3970  0.6551  0.6429
 
              Baa     0.0000     0.000     0.000     0.000 -0.2054 -0.6495  0.7321
     3 C(13)  Bbb     0.0000     0.000     0.000     0.000  0.9170 -0.3892 -0.0880
              Bcc     0.0000     0.000     0.000     0.000  0.3420  0.6532  0.6755
 
              Baa     0.0000     0.000     0.000     0.000 -0.2315  0.9346  0.2699
     4 H(1)   Bbb     0.0000     0.000     0.000     0.000  0.8095  0.0312  0.5863
              Bcc     0.0000     0.000     0.000     0.000 -0.5396 -0.3543  0.7638
 
              Baa     0.0000     0.000     0.000     0.000  0.7044  0.3775  0.6011
     5 H(1)   Bbb     0.0000     0.000     0.000     0.000 -0.6498  0.0021  0.7601
              Bcc     0.0000     0.000     0.000     0.000 -0.2857  0.9260 -0.2467
 
              Baa     0.0000     0.000     0.000     0.000 -0.3957  0.1926  0.8980
     6 H(1)   Bbb     0.0000     0.000     0.000     0.000  0.9104  0.2111  0.3559
              Bcc     0.0000     0.000     0.000     0.000 -0.1211  0.9583 -0.2589
 
              Baa     0.0000     0.000     0.000     0.000  0.7948  0.3794 -0.4737
     7 H(1)   Bbb     0.0000     0.000     0.000     0.000 -0.0519  0.8201  0.5698
              Bcc     0.0000     0.000     0.000     0.000  0.6047 -0.4283  0.6715
 
              Baa     0.0000     0.000     0.000     0.000  0.1856  0.9823 -0.0255
     8 H(1)   Bbb     0.0000     0.000     0.000     0.000  0.8990 -0.1592  0.4079
              Bcc     0.0000     0.000     0.000     0.000 -0.3966  0.0987  0.9127
 
              Baa     0.0000     0.000     0.000     0.000 -0.3061  0.7548  0.5801
     9 C(13)  Bbb     0.0000     0.000     0.000     0.000  0.8653 -0.0335  0.5002
              Bcc     0.0000     0.000     0.000     0.000  0.3970  0.6551 -0.6429
 
              Baa     0.0000     0.000     0.000     0.000  0.2054  0.6495  0.7321
    10 C(13)  Bbb     0.0000     0.000     0.000     0.000  0.9170 -0.3892  0.0880
              Bcc     0.0000     0.000     0.000     0.000 -0.3420 -0.6532  0.6755
 
              Baa     0.0000     0.000     0.000     0.000 -0.2315  0.9346 -0.2699
    11 H(1)   Bbb     0.0000     0.000     0.000     0.000  0.8095  0.0312 -0.5863
              Bcc     0.0000     0.000     0.000     0.000  0.5396  0.3543  0.7638
 
              Baa     0.0000     0.000     0.000     0.000  0.7044  0.3775 -0.6011
    12 H(1)   Bbb     0.0000     0.000     0.000     0.000  0.6498 -0.0021  0.7601
              Bcc     0.0000     0.000     0.000     0.000 -0.2857  0.9260  0.2467
 
              Baa     0.0000     0.000     0.000     0.000  0.3957 -0.1926  0.8980
    13 H(1)   Bbb     0.0000     0.000     0.000     0.000  0.9104  0.2111 -0.3559
              Bcc     0.0000     0.000     0.000     0.000 -0.1211  0.9583  0.2589
 
              Baa     0.0000     0.000     0.000     0.000  0.7948  0.3794  0.4737
    14 H(1)   Bbb     0.0000     0.000     0.000     0.000 -0.0519  0.8201 -0.5698
              Bcc     0.0000     0.000     0.000     0.000 -0.6047  0.4283  0.6715
 
              Baa     0.0000     0.000     0.000     0.000  0.1856  0.9823  0.0255
    15 H(1)   Bbb     0.0000     0.000     0.000     0.000  0.8990 -0.1592 -0.4079
              Bcc     0.0000     0.000     0.000     0.000  0.3966 -0.0987  0.9127
 

 ---------------------------------------------------------------------------------

 Range of M.O.s used for correlation:     1   328
 NBasis=   328 NAE=    31 NBE=    31 NFC=     0 NFV=     0
 NROrb=    328 NOA=    31 NOB=    31 NVA=   297 NVB=   297

 **** Warning!!: The largest alpha MO coefficient is  0.11853053D+02


 **** Warning!!: The largest beta MO coefficient is  0.11853054D+02

 Keep R1 and R2 ints in memory in symmetry-blocked form, NReq=2183654072.
 Orbital symmetries:
 Alpha Orbitals:
       Occupied  (A) (A) (B) (A) (B) (A) (B) (A) (B) (A) (B) (B)
                 (A) (A) (B) (A) (B) (A) (B) (A) (B) (A) (A) (B)
                 (A) (B) (A) (B) (A) (B) (A)
       Virtual   (B) (B) (A) (A) (B) (A) (A) (B) (B) (A) (A) (B)
                 (B) (A) (A) (B) (A) (B) (A) (B) (A) (B) (B) (A)
                 (B) (A) (B) (A) (B) (A) (B) (A) (A) (B) (B) (B)
                 (A) (B) (A) (B) (A) (A) (A) (A) (B) (B) (A) (B)
                 (A) (B) (B) (A) (A) (B) (A) (B) (A) (B) (A) (B)
                 (B) (A) (B) (A) (B) (B) (A) (A) (B) (A) (B) (B)
                 (A) (B) (A) (A) (A) (B) (B) (B) (A) (B) (A) (A)
                 (A) (A) (B) (B) (A) (B) (A) (A) (B) (B) (A) (A)
                 (B) (B) (A) (A) (B) (B) (A) (B) (A) (B) (B) (A)
                 (B) (A) (A) (B) (A) (B) (A) (B) (B) (A) (B) (A)
                 (A) (B) (B) (A) (A) (B) (A) (B) (A) (A) (B) (B)
                 (B) (A) (B) (A) (B) (A) (A) (A) (B) (B) (B) (A)
                 (A) (A) (B) (B) (B) (A) (B) (A) (B) (A) (B) (A)
                 (B) (A) (A) (B) (A) (B) (A) (B) (B) (A) (A) (B)
                 (A) (A) (B) (B) (A) (A) (B) (A) (B) (B) (B) (A)
                 (B) (A) (A) (B) (A) (B) (B) (A) (B) (B) (A) (A)
                 (A) (A) (B) (B) (A) (A) (B) (B) (A) (B) (B) (A)
                 (A) (B) (A) (B) (A) (A) (B) (A) (B) (B) (A) (A)
                 (B) (A) (B) (A) (B) (B) (A) (A) (B) (A) (B) (B)
                 (A) (A) (B) (B) (A) (B) (A) (B) (A) (A) (B) (B)
                 (A) (A) (B) (B) (B) (A) (A) (B) (A) (A) (B) (B)
                 (A) (B) (B) (A) (A) (B) (B) (A) (B) (A) (A) (B)
                 (A) (B) (B) (A) (A) (B) (B) (A) (B) (A) (B) (A)
                 (A) (A) (B) (B) (A) (A) (B) (B) (A) (A) (B) (B)
                 (A) (B) (A) (B) (A) (B) (A) (B) (A)
 Beta  Orbitals:
       Occupied  (A) (A) (B) (A) (B) (A) (B) (A) (B) (A) (B) (B)
                 (A) (A) (B) (A) (B) (A) (B) (A) (B) (A) (A) (B)
                 (A) (B) (A) (B) (A) (B) (A)
       Virtual   (B) (B) (A) (A) (B) (A) (A) (B) (B) (A) (A) (B)
                 (B) (A) (A) (B) (A) (B) (A) (B) (A) (B) (B) (A)
                 (B) (A) (B) (A) (B) (A) (B) (A) (A) (B) (B) (B)
                 (A) (B) (A) (B) (A) (A) (A) (A) (B) (B) (A) (B)
                 (A) (B) (B) (A) (A) (B) (A) (B) (A) (B) (A) (B)
                 (B) (A) (B) (A) (B) (B) (A) (A) (B) (A) (B) (B)
                 (A) (B) (A) (A) (A) (B) (B) (B) (A) (B) (A) (A)
                 (A) (A) (B) (B) (A) (B) (A) (A) (B) (B) (A) (A)
                 (B) (B) (A) (A) (B) (B) (A) (B) (A) (B) (B) (A)
                 (B) (A) (A) (B) (A) (B) (A) (B) (B) (A) (B) (A)
                 (A) (B) (B) (A) (A) (B) (A) (B) (A) (A) (B) (B)
                 (B) (A) (B) (A) (B) (A) (A) (A) (B) (B) (B) (A)
                 (A) (A) (B) (B) (B) (A) (B) (A) (B) (A) (B) (A)
                 (B) (A) (A) (B) (A) (B) (A) (B) (B) (A) (A) (B)
                 (A) (A) (B) (B) (A) (A) (B) (A) (B) (B) (B) (A)
                 (B) (A) (A) (B) (A) (B) (B) (A) (B) (B) (A) (A)
                 (A) (A) (B) (B) (A) (A) (B) (B) (A) (B) (B) (A)
                 (A) (B) (A) (B) (A) (A) (B) (A) (B) (B) (A) (A)
                 (B) (A) (B) (A) (B) (B) (A) (A) (B) (A) (B) (B)
                 (A) (A) (B) (B) (A) (B) (A) (B) (A) (A) (B) (B)
                 (A) (A) (B) (B) (B) (A) (A) (B) (A) (A) (B) (B)
                 (A) (B) (B) (A) (A) (B) (B) (A) (B) (A) (A) (B)
                 (A) (B) (B) (A) (A) (B) (B) (A) (B) (A) (B) (A)
                 (A) (A) (B) (B) (A) (A) (B) (B) (A) (A) (B) (B)
                 (A) (B) (A) (B) (A) (B) (A) (B) (A)
    12 initial guesses have been made.
 Convergence on wavefunction:    0.001000000000000
 Iteration     1 Dimension    12 NMult     0 NNew     12
 CISAX will form    12 AO SS matrices at one time.
 Iteration     2 Dimension    24 NMult    12 NNew     12
 Iteration     3 Dimension    27 NMult    24 NNew      3
 Iteration     4 Dimension    30 NMult    27 NNew      3
 Iteration     5 Dimension    33 NMult    30 NNew      3
 ***********************************************************************
 Stability analysis using <AA,BB:AA,BB> singles matrix:
 ***********************************************************************

 Eigenvectors of the stability matrix:
 
 Eigenvector   1:  3.000-B    Eigenvalue=-0.1794061  <S**2>=2.000
     25A -> 32A       -0.14136
     27A -> 32A        0.10500
     31A -> 32A       -0.67405
     25B -> 32B        0.14136
     27B -> 32B       -0.10500
     31B -> 32B        0.67405
 SavETr:  write IOETrn=   770 NScale= 10 NData=  16 NLR=1 NState=    1 LETran=      28.
 The wavefunction has an internal instability.
 Keep R1 and R2 ints in memory in symmetry-blocked form, NReq=2184915038.
 The two search directions are symmetric.
 Gradient too large for Newton-Raphson -- use scaled steepest descent instead.
 Gradient too large for Newton-Raphson -- use scaled steepest descent instead.
 Gradient too large for Newton-Raphson -- use scaled steepest descent instead.
     Accept linear search using points  1 and  2.
 Gradient too large for Newton-Raphson -- use scaled steepest descent instead.
     Accept linear search using points  1 and  2.
 Gradient too large for Newton-Raphson -- use scaled steepest descent instead.
     Minimum is close to point  2 DX=  7.94D-02 DF= -9.34D-07 DXR=  9.03D-02 DFR=  8.21D-03 which will be used.
 Gradient too large for Newton-Raphson -- use scaled steepest descent instead.
 Gradient too large for Newton-Raphson -- use scaled steepest descent instead.
     Accept linear search using points  1 and  2.
 LinEq1:  Iter=  0 NonCon=     1 RMS=3.16D-05 Max=2.01D-03 NDo=     1
 AX will form     1 AO Fock derivatives at one time.
 LinEq1:  Iter=  1 NonCon=     1 RMS=1.64D-05 Max=2.63D-04 NDo=     1
 LinEq1:  Iter=  2 NonCon=     1 RMS=4.88D-06 Max=2.08D-04 NDo=     1
 LinEq1:  Iter=  3 NonCon=     1 RMS=1.04D-06 Max=4.49D-05 NDo=     1
 LinEq1:  Iter=  4 NonCon=     1 RMS=2.84D-07 Max=7.38D-06 NDo=     1
 LinEq1:  Iter=  5 NonCon=     1 RMS=1.08D-07 Max=2.96D-06 NDo=     1
 LinEq1:  Iter=  6 NonCon=     1 RMS=2.75D-08 Max=6.81D-07 NDo=     1
 LinEq1:  Iter=  7 NonCon=     1 RMS=6.88D-09 Max=1.81D-07 NDo=     1
 LinEq1:  Iter=  8 NonCon=     0 RMS=1.98D-09 Max=5.15D-08 NDo=     1
 Linear equations converged to 1.357D-08 1.357D-07 after     8 iterations.
     Accept linear search using points  1 and  2.
     Minimum is close to point  2 DX= -2.56D-03 DF= -2.01D-10 DXR=  2.56D-03 DFR=  6.58D-06 which will be used.
 LinEq1:  Iter=  0 NonCon=     1 RMS=1.86D-07 Max=9.98D-06 NDo=     1
 LinEq1:  Iter=  1 NonCon=     1 RMS=6.81D-08 Max=2.61D-06 NDo=     1
 LinEq1:  Iter=  2 NonCon=     1 RMS=2.47D-08 Max=1.05D-06 NDo=     1
 LinEq1:  Iter=  3 NonCon=     1 RMS=1.03D-08 Max=2.86D-07 NDo=     1
 LinEq1:  Iter=  4 NonCon=     1 RMS=7.36D-09 Max=2.13D-07 NDo=     1
 LinEq1:  Iter=  5 NonCon=     1 RMS=2.35D-09 Max=8.22D-08 NDo=     1
 LinEq1:  Iter=  6 NonCon=     1 RMS=7.59D-10 Max=1.41D-08 NDo=     1
 LinEq1:  Iter=  7 NonCon=     1 RMS=2.65D-10 Max=8.70D-09 NDo=     1
 LinEq1:  Iter=  8 NonCon=     0 RMS=7.57D-11 Max=1.23D-09 NDo=     1
 Linear equations converged to 2.338D-10 2.338D-09 after     8 iterations.
 Density matrix breaks symmetry, PCut= 1.00D-04
 Density matrix has no symmetry -- integrals replicated.
 Density matrix is not symmetric, so final MOs not symmetrized.
 SCF Done:  E(UHF) =  -1934.37488408     a.u. after   10 cycles
            Convg  =    0.1729D-06                    49 Fock formations.
              S**2 =  0.9707                  -V/T =  2.0000
 <Sx>= 0.0000 <Sy>= 0.0000 <Sz>= 0.0000 <S**2>= 0.9707 S= 0.6048
 <L.S>= 0.000000000000E+00
 Annihilation of the first spin contaminant:
 S**2 before annihilation     0.9707,   after     0.1214
 Range of M.O.s used for correlation:     1   328
 NBasis=   328 NAE=    31 NBE=    31 NFC=     0 NFV=     0
 NROrb=    328 NOA=    31 NOB=    31 NVA=   297 NVB=   297

 **** Warning!!: The largest alpha MO coefficient is  0.11759804D+02


 **** Warning!!: The largest beta MO coefficient is  0.11759804D+02

 Keep R1 and R2 ints in memory in symmetry-blocked form, NReq=2183654072.
 Orbital symmetries:
 Alpha Orbitals:
       Occupied  (A) (A) (?A) (?A) (B) (?A) (?A) (?A) (?A) (A)
                 (B) (?A) (?A) (B) (B) (B) (B) (B) (B) (B) (B)
                 (B) (B) (B) (B) (B) (B) (B) (B) (B) (B)
       Virtual   (B) (B) (B) (B) (B) (B) (B) (B) (B) (B) (B) (B)
                 (B) (B) (B) (B) (B) (B) (B) (B) (B) (B) (B) (B)
                 (B) (B) (B) (B) (B) (B) (B) (B) (B) (B) (B) (B)
                 (B) (B) (B) (B) (B) (B) (B) (B) (B) (B) (B) (B)
                 (B) (B) (B) (B) (B) (B) (B) (B) (B) (B) (B) (B)
                 (B) (B) (B) (B) (B) (B) (B) (B) (B) (B) (B) (B)
                 (B) (B) (B) (B) (B) (B) (B) (B) (B) (B) (B) (B)
                 (B) (B) (B) (B) (B) (B) (B) (B) (B) (B) (B) (B)
                 (B) (B) (B) (B) (B) (B) (B) (B) (B) (B) (?B) (?B)
                 (?B) (?B) (?B) (?B) (?B) (?B) (?B) (?B) (?B) (?B)
                 (?B) (?B) (?B) (?B) (?B) (?B) (?B) (?B) (?B) (?B)
                 (?B) (?B) (?B) (?B) (?B) (?B) (?B) (?B) (?B) (?B)
                 (?B) (?B) (?B) (?B) (?B) (?B) (?B) (?B) (?B) (?B)
                 (?B) (?B) (?B) (?B) (?B) (?B) (?B) (?B) (?B) (?B)
                 (?B) (?B) (?B) (?B) (?B) (?B) (?B) (?B) (?B) (?A)
                 (?A) (?B) (?B) (?B) (?B) (?B) (?B) (?B) (?B) (?B)
                 (?B) (?B) (?B) (?B) (?B) (?B) (?B) (?B) (?B) (?B)
                 (?B) (?B) (?B) (?B) (?B) (?B) (?B) (?B) (?B) (?B)
                 (?B) (?B) (?B) (?B) (?B) (?B) (?B) (?B) (?B) (?B)
                 (?B) (?B) (?B) (?B) (?B) (?B) (?B) (?B) (?B) (?B)
                 (?B) (?B) (?B) (?B) (?B) (?B) (?B) (?B) (?B) (?B)
                 (?C) (?C) (?C) (?C) (?C) (?C) (?C) (?C) (?C) (?C)
                 (?C) (?C) (?C) (?C) (?C) (?C) (?C) (?C) (?C) (?C)
                 (?C) (?C) (?C) (?C) (?C) (?C) (?C) (?C) (?C) (?C)
                 (?C) (?C) (?C) (?C) (?C) (?C) (?C) (?C) (?D) (?D)
                 (?D) (?D) (?D) (?D) (B) (A) (B) (A) (A) (?A) (?A)
                 (?A) (?A) (A) (B) (B) (A) (A) (B) (B) (A) (B)
                 (B) (A) (A) (B) (?A) (?A) (A)
 Beta  Orbitals:
       Occupied  (A) (A) (?A) (?A) (B) (?A) (?A) (?A) (?A) (A)
                 (B) (?A) (?A) (B) (B) (B) (B) (B) (B) (B) (B)
                 (B) (B) (B) (B) (B) (B) (B) (B) (B) (B)
       Virtual   (B) (B) (B) (B) (B) (B) (B) (B) (B) (B) (B) (B)
                 (B) (B) (B) (B) (B) (B) (B) (B) (B) (B) (B) (B)
                 (B) (B) (B) (B) (B) (B) (B) (B) (B) (B) (B) (B)
                 (B) (B) (B) (B) (B) (B) (B) (B) (B) (B) (B) (B)
                 (B) (B) (B) (B) (B) (B) (B) (B) (B) (B) (B) (B)
                 (B) (B) (B) (B) (B) (B) (B) (B) (B) (B) (B) (B)
                 (B) (B) (B) (B) (B) (B) (B) (B) (B) (B) (B) (B)
                 (B) (B) (B) (B) (B) (B) (B) (B) (B) (B) (B) (B)
                 (B) (B) (B) (B) (B) (B) (B) (B) (B) (B) (?B) (?B)
                 (?B) (?B) (?B) (?B) (?B) (?B) (?B) (?B) (?B) (?B)
                 (?B) (?B) (?B) (?B) (?B) (?B) (?B) (?B) (?B) (?B)
                 (?B) (?B) (?B) (?B) (?B) (?B) (?B) (?B) (?B) (?B)
                 (?B) (?B) (?B) (?B) (?B) (?B) (?B) (?B) (?B) (?B)
                 (?B) (?B) (?B) (?B) (?B) (?B) (?B) (?B) (?B) (?B)
                 (?B) (?B) (?B) (?B) (?B) (?B) (?B) (?B) (?B) (?A)
                 (?A) (?B) (?B) (?B) (?B) (?B) (?B) (?B) (?B) (?B)
                 (?B) (?B) (?B) (?B) (?B) (?B) (?B) (?B) (?B) (?B)
                 (?B) (?B) (?B) (?B) (?B) (?B) (?B) (?B) (?B) (?B)
                 (?B) (?B) (?B) (?B) (?B) (?B) (?B) (?B) (?B) (?B)
                 (?B) (?B) (?B) (?B) (?B) (?B) (?B) (?B) (?B) (?B)
                 (?B) (?B) (?B) (?B) (?B) (?B) (?B) (?B) (?B) (?B)
                 (?C) (?C) (?C) (?C) (?C) (?C) (?C) (?C) (?C) (?C)
                 (?C) (?C) (?C) (?C) (?C) (?C) (?C) (?C) (?C) (?C)
                 (?C) (?C) (?C) (?C) (?C) (?C) (?C) (?C) (?C) (?C)
                 (?C) (?C) (?C) (?C) (?C) (?C) (?C) (?C) (?D) (?D)
                 (?D) (?D) (?D) (?D) (B) (A) (B) (A) (A) (?A) (?A)
                 (?A) (?A) (A) (B) (B) (A) (A) (B) (B) (A) (B)
                 (B) (A) (A) (B) (?A) (?A) (A)
    12 initial guesses have been made.
 Convergence on wavefunction:    0.001000000000000
 Iteration     1 Dimension    12 NMult     0 NNew     12
 CISAX will form    12 AO SS matrices at one time.
 New state      1 was old state      8
 Iteration     2 Dimension    24 NMult    12 NNew     12
 Iteration     3 Dimension    27 NMult    24 NNew      3
 Iteration     4 Dimension    30 NMult    27 NNew      3
 Iteration     5 Dimension    33 NMult    30 NNew      3
 Iteration     6 Dimension    36 NMult    33 NNew      3
 Iteration     7 Dimension    39 NMult    36 NNew      3
 ***********************************************************************
 Stability analysis using <AA,BB:AA,BB> singles matrix:
 ***********************************************************************

 Eigenvectors of the stability matrix:
 
 Eigenvector   1:  2.333-A    Eigenvalue= 0.0888374  <S**2>=1.110
     26A -> 32A       -0.31901
     26A -> 35A       -0.10398
     27A -> 32A       -0.44139
     28A -> 32A        0.36041
     26B -> 32B        0.31901
     26B -> 35B        0.10398
     27B -> 32B        0.44139
     28B -> 32B       -0.36041
 SavETr:  write IOETrn=   770 NScale= 10 NData=  16 NLR=1 NState=    1 LETran=      28.
 The wavefunction is stable under the perturbations considered.
 The wavefunction is already stable.

 **********************************************************************

            Population analysis using the SCF density.

 **********************************************************************

 Orbital symmetries:
 Alpha Orbitals:
       Occupied  (A) (A) (?A) (?A) (B) (?A) (?A) (?A) (?A) (A)
                 (B) (?A) (?A) (B) (B) (B) (B) (B) (B) (B) (B)
                 (B) (B) (B) (B) (B) (B) (B) (B) (B) (B)
       Virtual   (B) (B) (B) (B) (B) (B) (B) (B) (B) (B) (B) (B)
                 (B) (B) (B) (B) (B) (B) (B) (B) (B) (B) (B) (B)
                 (B) (B) (B) (B) (B) (B) (B) (B) (B) (B) (B) (B)
                 (B) (B) (B) (B) (B) (B) (B) (B) (B) (B) (B) (B)
                 (B) (B) (B) (B) (B) (B) (B) (B) (B) (B) (B) (B)
                 (B) (B) (B) (B) (B) (B) (B) (B) (B) (B) (B) (B)
                 (B) (B) (B) (B) (B) (B) (B) (B) (B) (B) (B) (B)
                 (B) (B) (B) (B) (B) (B) (B) (B) (B) (B) (B) (B)
                 (B) (B) (B) (B) (B) (B) (B) (B) (B) (B) (?B) (?B)
                 (?B) (?B) (?B) (?B) (?B) (?B) (?B) (?B) (?B) (?B)
                 (?B) (?B) (?B) (?B) (?B) (?B) (?B) (?B) (?B) (?B)
                 (?B) (?B) (?B) (?B) (?B) (?B) (?B) (?B) (?B) (?B)
                 (?B) (?B) (?B) (?B) (?B) (?B) (?B) (?B) (?B) (?B)
                 (?B) (?B) (?B) (?B) (?B) (?B) (?B) (?B) (?B) (?B)
                 (?B) (?B) (?B) (?B) (?B) (?B) (?B) (?B) (?B) (?A)
                 (?A) (?B) (?B) (?B) (?B) (?B) (?B) (?B) (?B) (?B)
                 (?B) (?B) (?B) (?B) (?B) (?B) (?B) (?B) (?B) (?B)
                 (?B) (?B) (?B) (?B) (?B) (?B) (?B) (?B) (?B) (?B)
                 (?B) (?B) (?B) (?B) (?B) (?B) (?B) (?B) (?B) (?B)
                 (?B) (?B) (?B) (?B) (?B) (?B) (?B) (?B) (?B) (?B)
                 (?B) (?B) (?B) (?B) (?B) (?B) (?B) (?B) (?B) (?B)
                 (?C) (?C) (?C) (?C) (?C) (?C) (?C) (?C) (?C) (?C)
                 (?C) (?C) (?C) (?C) (?C) (?C) (?C) (?C) (?C) (?C)
                 (?C) (?C) (?C) (?C) (?C) (?C) (?C) (?C) (?C) (?C)
                 (?C) (?C) (?C) (?C) (?C) (?C) (?C) (?C) (?D) (?D)
                 (?D) (?D) (?D) (?D) (B) (A) (B) (A) (A) (?A) (?A)
                 (?A) (?A) (A) (B) (B) (A) (A) (B) (B) (A) (B)
                 (B) (A) (A) (B) (?A) (?A) (A)
 Beta  Orbitals:
       Occupied  (A) (A) (?A) (?A) (B) (?A) (?A) (?A) (?A) (A)
                 (B) (?A) (?A) (B) (B) (B) (B) (B) (B) (B) (B)
                 (B) (B) (B) (B) (B) (B) (B) (B) (B) (B)
       Virtual   (B) (B) (B) (B) (B) (B) (B) (B) (B) (B) (B) (B)
                 (B) (B) (B) (B) (B) (B) (B) (B) (B) (B) (B) (B)
                 (B) (B) (B) (B) (B) (B) (B) (B) (B) (B) (B) (B)
                 (B) (B) (B) (B) (B) (B) (B) (B) (B) (B) (B) (B)
                 (B) (B) (B) (B) (B) (B) (B) (B) (B) (B) (B) (B)
                 (B) (B) (B) (B) (B) (B) (B) (B) (B) (B) (B) (B)
                 (B) (B) (B) (B) (B) (B) (B) (B) (B) (B) (B) (B)
                 (B) (B) (B) (B) (B) (B) (B) (B) (B) (B) (B) (B)
                 (B) (B) (B) (B) (B) (B) (B) (B) (B) (B) (?B) (?B)
                 (?B) (?B) (?B) (?B) (?B) (?B) (?B) (?B) (?B) (?B)
                 (?B) (?B) (?B) (?B) (?B) (?B) (?B) (?B) (?B) (?B)
                 (?B) (?B) (?B) (?B) (?B) (?B) (?B) (?B) (?B) (?B)
                 (?B) (?B) (?B) (?B) (?B) (?B) (?B) (?B) (?B) (?B)
                 (?B) (?B) (?B) (?B) (?B) (?B) (?B) (?B) (?B) (?B)
                 (?B) (?B) (?B) (?B) (?B) (?B) (?B) (?B) (?B) (?A)
                 (?A) (?B) (?B) (?B) (?B) (?B) (?B) (?B) (?B) (?B)
                 (?B) (?B) (?B) (?B) (?B) (?B) (?B) (?B) (?B) (?B)
                 (?B) (?B) (?B) (?B) (?B) (?B) (?B) (?B) (?B) (?B)
                 (?B) (?B) (?B) (?B) (?B) (?B) (?B) (?B) (?B) (?B)
                 (?B) (?B) (?B) (?B) (?B) (?B) (?B) (?B) (?B) (?B)
                 (?B) (?B) (?B) (?B) (?B) (?B) (?B) (?B) (?B) (?B)
                 (?C) (?C) (?C) (?C) (?C) (?C) (?C) (?C) (?C) (?C)
                 (?C) (?C) (?C) (?C) (?C) (?C) (?C) (?C) (?C) (?C)
                 (?C) (?C) (?C) (?C) (?C) (?C) (?C) (?C) (?C) (?C)
                 (?C) (?C) (?C) (?C) (?C) (?C) (?C) (?C) (?D) (?D)
                 (?D) (?D) (?D) (?D) (B) (A) (B) (A) (A) (?A) (?A)
                 (?A) (?A) (A) (B) (B) (A) (A) (B) (B) (A) (B)
                 (B) (A) (A) (B) (?A) (?A) (A)
 Unable to determine electronic state:  an orbital has unidentified symmetry.
 Alpha  occ. eigenvalues -- -353.81804 -44.87313 -39.43873 -39.43870 -39.43603
 Alpha  occ. eigenvalues --  -11.66164 -11.64864 -11.57169 -11.57161  -6.15251
 Alpha  occ. eigenvalues --   -4.35994  -4.35743  -4.35738  -1.42836  -1.37515
 Alpha  occ. eigenvalues --   -1.30862  -1.30531  -1.30209  -1.30207  -1.29890
 Alpha  occ. eigenvalues --   -1.21456  -1.17517  -0.99048  -0.97527  -0.97140
 Alpha  occ. eigenvalues --   -0.90219  -0.89414  -0.87355  -0.85350  -0.84683
 Alpha  occ. eigenvalues --   -0.84173
 Alpha virt. eigenvalues --   -0.43573  -0.27507  -0.27382  -0.24582  -0.16314
 Alpha virt. eigenvalues --   -0.12949  -0.11810  -0.10899  -0.09649  -0.09550
 Alpha virt. eigenvalues --   -0.09234  -0.07378  -0.05530  -0.04927  -0.03444
 Alpha virt. eigenvalues --   -0.02899  -0.01077  -0.00130   0.01484   0.05774
 Alpha virt. eigenvalues --    0.06848   0.06971   0.08116   0.08311   0.09071
 Alpha virt. eigenvalues --    0.09670   0.12953   0.15227   0.20542   0.23352
 Alpha virt. eigenvalues --    0.23942   0.25374   0.26526   0.26700   0.27286
 Alpha virt. eigenvalues --    0.28143   0.29537   0.31314   0.31908   0.33238
 Alpha virt. eigenvalues --    0.33652   0.35231   0.36205   0.37462   0.38325
 Alpha virt. eigenvalues --    0.38719   0.39780   0.41392   0.44978   0.46463
 Alpha virt. eigenvalues --    0.52012   0.53856   0.55569   0.59264   0.60486
 Alpha virt. eigenvalues --    0.62279   0.63764   0.65374   0.66454   0.68181
 Alpha virt. eigenvalues --    0.70311   0.76368   0.77025   0.78614   0.79544
 Alpha virt. eigenvalues --    0.82981   0.83245   0.88298   0.88648   0.90008
 Alpha virt. eigenvalues --    0.91719   0.93172   0.93767   0.94120   0.94656
 Alpha virt. eigenvalues --    0.95750   0.98202   1.00455   1.01973   1.02450
 Alpha virt. eigenvalues --    1.02737   1.03574   1.04403   1.07033   1.09026
 Alpha virt. eigenvalues --    1.11889   1.12691   1.15927   1.16716   1.17947
 Alpha virt. eigenvalues --    1.18199   1.22401   1.22754   1.24669   1.26035
 Alpha virt. eigenvalues --    1.27636   1.28764   1.29579   1.36050   1.37539
 Alpha virt. eigenvalues --    1.38985   1.41514   1.46240   1.47883   1.55073
 Alpha virt. eigenvalues --    1.56962   2.13045   2.15562   2.16299   2.19381
 Alpha virt. eigenvalues --    2.23466   2.28286   2.29401   2.30299   2.31761
 Alpha virt. eigenvalues --    2.34908   2.37280   2.38119   2.39627   2.41201
 Alpha virt. eigenvalues --    2.47630   2.48208   2.50315   2.53296   2.53790
 Alpha virt. eigenvalues --    2.54718   2.56813   2.59619   2.60434   2.66684
 Alpha virt. eigenvalues --    2.67341   2.70857   2.71913   2.73060   2.73434
 Alpha virt. eigenvalues --    2.74457   2.75463   2.76370   2.78471   2.81787
 Alpha virt. eigenvalues --    2.82692   2.84492   2.87980   2.91773   2.92238
 Alpha virt. eigenvalues --    2.92364   2.94069   2.94784   2.96036   2.97903
 Alpha virt. eigenvalues --    3.00810   3.02748   3.04513   3.04839   3.05974
 Alpha virt. eigenvalues --    3.06240   3.08232   3.09420   3.12411   3.13468
 Alpha virt. eigenvalues --    3.14993   3.17623   3.19485   3.21746   3.23901
 Alpha virt. eigenvalues --    3.25871   3.29816   3.31486   3.31853   3.37591
 Alpha virt. eigenvalues --    3.39651   3.41387   3.41794   3.42332   3.42866
 Alpha virt. eigenvalues --    3.44831   3.46352   3.48886   3.50673   3.51014
 Alpha virt. eigenvalues --    3.60167   3.61299   3.62606   3.62920   3.68987
 Alpha virt. eigenvalues --    3.72358   3.73467   3.74257   3.74854   3.76111
 Alpha virt. eigenvalues --    3.77187   3.78577   3.81035   3.83897   3.84126
 Alpha virt. eigenvalues --    3.85164   3.85202   3.89726   3.90049   3.90287
 Alpha virt. eigenvalues --    3.93241   3.94996   3.96906   3.97447   4.00196
 Alpha virt. eigenvalues --    4.00322   4.02049   4.03187   4.04663   4.06739
 Alpha virt. eigenvalues --    4.06842   4.10275   4.10672   4.11580   4.15404
 Alpha virt. eigenvalues --    4.16541   4.17955   4.22448   4.23165   4.23438
 Alpha virt. eigenvalues --    4.23896   4.29585   4.30254   4.30980   4.32520
 Alpha virt. eigenvalues --    4.38656   4.39329   4.44347   4.51530   4.51681
 Alpha virt. eigenvalues --    4.55350   4.63204   4.63907   4.64443   4.69299
 Alpha virt. eigenvalues --    4.76300   4.79859   4.80461   4.80771   4.80974
 Alpha virt. eigenvalues --    4.84807   4.85667   4.86024   4.87095   4.91977
 Alpha virt. eigenvalues --    4.92936   4.93622   5.04742   5.06237   5.14638
 Alpha virt. eigenvalues --    5.15092   5.16027   5.20785   5.21062   5.26956
 Alpha virt. eigenvalues --    5.28389   5.33267   5.33948   5.35209   5.35526
 Alpha virt. eigenvalues --    5.37461   5.38649   5.41351   5.42503   5.45777
 Alpha virt. eigenvalues --    5.46665   5.89623   5.92369   5.94311   5.94559
 Alpha virt. eigenvalues --    5.95122   5.95216  10.41348  10.43804  10.69090
 Alpha virt. eigenvalues --   10.72880  11.17331  11.80001  11.89983  13.42557
 Alpha virt. eigenvalues --   13.45362  15.72771  15.72786  15.74712  15.75114
 Alpha virt. eigenvalues --   15.81120  15.81560  15.94928  16.41140  16.41140
 Alpha virt. eigenvalues --   16.41347  16.41347  16.41556  16.41587  16.42083
 Alpha virt. eigenvalues --   16.42090  16.43089
  Beta  occ. eigenvalues -- -353.81804 -44.87313 -39.43873 -39.43870 -39.43603
  Beta  occ. eigenvalues --  -11.66164 -11.64864 -11.57169 -11.57161  -6.15251
  Beta  occ. eigenvalues --   -4.35994  -4.35743  -4.35738  -1.42836  -1.37515
  Beta  occ. eigenvalues --   -1.30862  -1.30531  -1.30209  -1.30207  -1.29890
  Beta  occ. eigenvalues --   -1.21456  -1.17517  -0.99048  -0.97527  -0.97140
  Beta  occ. eigenvalues --   -0.90219  -0.89414  -0.87355  -0.85350  -0.84683
  Beta  occ. eigenvalues --   -0.84173
  Beta virt. eigenvalues --   -0.43573  -0.27507  -0.27382  -0.24582  -0.16314
  Beta virt. eigenvalues --   -0.12949  -0.11810  -0.10899  -0.09649  -0.09550
  Beta virt. eigenvalues --   -0.09234  -0.07378  -0.05530  -0.04927  -0.03444
  Beta virt. eigenvalues --   -0.02899  -0.01077  -0.00130   0.01484   0.05774
  Beta virt. eigenvalues --    0.06848   0.06971   0.08116   0.08311   0.09071
  Beta virt. eigenvalues --    0.09670   0.12953   0.15227   0.20542   0.23352
  Beta virt. eigenvalues --    0.23942   0.25374   0.26526   0.26700   0.27286
  Beta virt. eigenvalues --    0.28143   0.29537   0.31314   0.31908   0.33238
  Beta virt. eigenvalues --    0.33652   0.35231   0.36205   0.37462   0.38325
  Beta virt. eigenvalues --    0.38719   0.39780   0.41392   0.44978   0.46463
  Beta virt. eigenvalues --    0.52012   0.53856   0.55569   0.59264   0.60486
  Beta virt. eigenvalues --    0.62279   0.63764   0.65374   0.66454   0.68181
  Beta virt. eigenvalues --    0.70311   0.76368   0.77025   0.78614   0.79544
  Beta virt. eigenvalues --    0.82981   0.83245   0.88298   0.88648   0.90008
  Beta virt. eigenvalues --    0.91719   0.93172   0.93767   0.94120   0.94656
  Beta virt. eigenvalues --    0.95750   0.98202   1.00455   1.01973   1.02450
  Beta virt. eigenvalues --    1.02737   1.03574   1.04403   1.07033   1.09026
  Beta virt. eigenvalues --    1.11889   1.12691   1.15927   1.16716   1.17947
  Beta virt. eigenvalues --    1.18199   1.22401   1.22754   1.24669   1.26035
  Beta virt. eigenvalues --    1.27636   1.28764   1.29579   1.36050   1.37539
  Beta virt. eigenvalues --    1.38985   1.41514   1.46240   1.47883   1.55073
  Beta virt. eigenvalues --    1.56962   2.13045   2.15562   2.16299   2.19381
  Beta virt. eigenvalues --    2.23466   2.28286   2.29401   2.30299   2.31761
  Beta virt. eigenvalues --    2.34908   2.37280   2.38119   2.39627   2.41201
  Beta virt. eigenvalues --    2.47630   2.48208   2.50315   2.53296   2.53790
  Beta virt. eigenvalues --    2.54718   2.56813   2.59619   2.60434   2.66684
  Beta virt. eigenvalues --    2.67341   2.70857   2.71913   2.73060   2.73434
  Beta virt. eigenvalues --    2.74457   2.75463   2.76370   2.78471   2.81787
  Beta virt. eigenvalues --    2.82692   2.84492   2.87980   2.91773   2.92238
  Beta virt. eigenvalues --    2.92364   2.94069   2.94784   2.96036   2.97903
  Beta virt. eigenvalues --    3.00810   3.02748   3.04513   3.04839   3.05974
  Beta virt. eigenvalues --    3.06240   3.08232   3.09420   3.12411   3.13468
  Beta virt. eigenvalues --    3.14993   3.17623   3.19485   3.21746   3.23901
  Beta virt. eigenvalues --    3.25871   3.29816   3.31486   3.31853   3.37591
  Beta virt. eigenvalues --    3.39651   3.41387   3.41794   3.42332   3.42866
  Beta virt. eigenvalues --    3.44831   3.46352   3.48886   3.50673   3.51014
  Beta virt. eigenvalues --    3.60167   3.61299   3.62606   3.62920   3.68987
  Beta virt. eigenvalues --    3.72358   3.73467   3.74257   3.74854   3.76111
  Beta virt. eigenvalues --    3.77187   3.78577   3.81035   3.83897   3.84126
  Beta virt. eigenvalues --    3.85164   3.85202   3.89726   3.90049   3.90287
  Beta virt. eigenvalues --    3.93241   3.94996   3.96906   3.97447   4.00196
  Beta virt. eigenvalues --    4.00322   4.02049   4.03187   4.04663   4.06739
  Beta virt. eigenvalues --    4.06842   4.10275   4.10672   4.11580   4.15404
  Beta virt. eigenvalues --    4.16541   4.17955   4.22448   4.23165   4.23438
  Beta virt. eigenvalues --    4.23896   4.29585   4.30254   4.30980   4.32520
  Beta virt. eigenvalues --    4.38656   4.39329   4.44347   4.51530   4.51681
  Beta virt. eigenvalues --    4.55350   4.63204   4.63907   4.64443   4.69299
  Beta virt. eigenvalues --    4.76300   4.79859   4.80461   4.80771   4.80974
  Beta virt. eigenvalues --    4.84807   4.85667   4.86024   4.87095   4.91977
  Beta virt. eigenvalues --    4.92936   4.93622   5.04742   5.06237   5.14638
  Beta virt. eigenvalues --    5.15092   5.16027   5.20785   5.21062   5.26956
  Beta virt. eigenvalues --    5.28389   5.33267   5.33948   5.35209   5.35526
  Beta virt. eigenvalues --    5.37461   5.38649   5.41351   5.42503   5.45777
  Beta virt. eigenvalues --    5.46665   5.89623   5.92369   5.94311   5.94559
  Beta virt. eigenvalues --    5.95122   5.95216  10.41348  10.43804  10.69090
  Beta virt. eigenvalues --   10.72880  11.17331  11.80001  11.89983  13.42557
  Beta virt. eigenvalues --   13.45362  15.72771  15.72786  15.74712  15.75114
  Beta virt. eigenvalues --   15.81120  15.81560  15.94928  16.41140  16.41140
  Beta virt. eigenvalues --   16.41347  16.41347  16.41556  16.41587  16.42083
  Beta virt. eigenvalues --   16.42090  16.43089
          Condensed to atoms (all electrons):
               1          2          3          4          5          6
     1  Zn  28.347308   0.185451  -0.006897   0.004653   0.005486   0.002428
     2  C    0.185451   5.092720   0.316424   0.399400   0.399569  -0.006510
     3  C   -0.006897   0.316424   4.812238  -0.027045  -0.027210   0.380053
     4  H    0.004653   0.399400  -0.027045   0.439410  -0.024818  -0.002605
     5  H    0.005486   0.399569  -0.027210  -0.024818   0.438039  -0.002651
     6  H    0.002428  -0.006510   0.380053  -0.002605  -0.002651   0.434467
     7  H    0.001824  -0.028734   0.414459  -0.004210   0.003636  -0.015810
     8  H    0.001758  -0.029477   0.414342   0.003707  -0.004263  -0.015735
     9  C    0.185451  -0.003337  -0.000206  -0.000245  -0.000288   0.000001
    10  C   -0.006897  -0.000206  -0.000006  -0.000009  -0.000017   0.000000
    11  H    0.004653  -0.000245  -0.000009  -0.000011   0.000008   0.000000
    12  H    0.005486  -0.000288  -0.000017   0.000008   0.000001   0.000000
    13  H    0.002428   0.000001   0.000000   0.000000   0.000000   0.000000
    14  H    0.001824  -0.000008  -0.000003   0.000009   0.000003   0.000000
    15  H    0.001758  -0.000011  -0.000001  -0.000005   0.000026   0.000000
               7          8          9         10         11         12
     1  Zn   0.001824   0.001758   0.185451  -0.006897   0.004653   0.005486
     2  C   -0.028734  -0.029477  -0.003337  -0.000206  -0.000245  -0.000288
     3  C    0.414459   0.414342  -0.000206  -0.000006  -0.000009  -0.000017
     4  H   -0.004210   0.003707  -0.000245  -0.000009  -0.000011   0.000008
     5  H    0.003636  -0.004263  -0.000288  -0.000017   0.000008   0.000001
     6  H   -0.015810  -0.015735   0.000001   0.000000   0.000000   0.000000
     7  H    0.499350  -0.030200  -0.000008  -0.000003   0.000009   0.000003
     8  H   -0.030200   0.500923  -0.000011  -0.000001  -0.000005   0.000026
     9  C   -0.000008  -0.000011   5.092720   0.316424   0.399400   0.399569
    10  C   -0.000003  -0.000001   0.316424   4.812238  -0.027045  -0.027210
    11  H    0.000009  -0.000005   0.399400  -0.027045   0.439410  -0.024818
    12  H    0.000003   0.000026   0.399569  -0.027210  -0.024818   0.438039
    13  H    0.000000   0.000000  -0.006510   0.380053  -0.002605  -0.002651
    14  H    0.000000   0.000001  -0.028734   0.414459  -0.004210   0.003636
    15  H    0.000001  -0.000003  -0.029477   0.414342   0.003707  -0.004263
              13         14         15
     1  Zn   0.002428   0.001824   0.001758
     2  C    0.000001  -0.000008  -0.000011
     3  C    0.000000  -0.000003  -0.000001
     4  H    0.000000   0.000009  -0.000005
     5  H    0.000000   0.000003   0.000026
     6  H    0.000000   0.000000   0.000000
     7  H    0.000000   0.000000   0.000001
     8  H    0.000000   0.000001  -0.000003
     9  C   -0.006510  -0.028734  -0.029477
    10  C    0.380053   0.414459   0.414342
    11  H   -0.002605  -0.004210   0.003707
    12  H   -0.002651   0.003636  -0.004263
    13  H    0.434467  -0.015810  -0.015735
    14  H   -0.015810   0.499350  -0.030200
    15  H   -0.015735  -0.030200   0.500923
          Atomic-Atomic Spin Densities.
               1          2          3          4          5          6
     1  Zn   0.000000   0.134452  -0.016607  -0.001703  -0.001556   0.001216
     2  C    0.134452   0.490826  -0.023810   0.014516   0.014446  -0.012901
     3  C   -0.016607  -0.023810  -0.014578   0.001772   0.001761   0.026160
     4  H   -0.001703   0.014516   0.001772   0.002855   0.002686  -0.001040
     5  H   -0.001556   0.014446   0.001761   0.002686   0.002451  -0.001039
     6  H    0.001216  -0.012901   0.026160  -0.001040  -0.001039   0.081845
     7  H   -0.001146  -0.000738   0.004025   0.000397   0.000018  -0.002741
     8  H   -0.001222  -0.000757   0.004085   0.000026   0.000399  -0.002756
     9  C   -0.134452   0.000000   0.000356   0.000168   0.000183  -0.000005
    10  C    0.016607  -0.000356   0.000000  -0.000016  -0.000020   0.000000
    11  H    0.001703  -0.000168   0.000016   0.000000   0.000000   0.000000
    12  H    0.001556  -0.000183   0.000020   0.000000   0.000000  -0.000001
    13  H   -0.001216   0.000005   0.000000   0.000000   0.000001   0.000000
    14  H    0.001146  -0.000042   0.000001  -0.000001  -0.000001   0.000000
    15  H    0.001222  -0.000034   0.000001   0.000000  -0.000001   0.000000
               7          8          9         10         11         12
     1  Zn  -0.001146  -0.001222  -0.134452   0.016607   0.001703   0.001556
     2  C   -0.000738  -0.000757   0.000000  -0.000356  -0.000168  -0.000183
[...]
 Alpha virt. eigenvalues --   -0.12949  -0.11810  -0.10899  -0.09649  -0.09550
 Alpha virt. eigenvalues --   -0.09234  -0.07378  -0.05530  -0.04927  -0.03444
 Alpha virt. eigenvalues --   -0.02899  -0.01077  -0.00130   0.01484   0.05774
 Alpha virt. eigenvalues --    0.06848   0.06971   0.08116   0.08311   0.09071
 Alpha virt. eigenvalues --    0.09670   0.12953   0.15227   0.20542   0.23352
 Alpha virt. eigenvalues --    0.23942   0.25374   0.26526   0.26700   0.27286
 Alpha virt. eigenvalues --    0.28143   0.29537   0.31314   0.31908   0.33238
 Alpha virt. eigenvalues --    0.33652   0.35231   0.36205   0.37462   0.38325
 Alpha virt. eigenvalues --    0.38719   0.39780   0.41392   0.44978   0.46463
 Alpha virt. eigenvalues --    0.52012   0.53856   0.55569   0.59264   0.60486
 Alpha virt. eigenvalues --    0.62279   0.63764   0.65374   0.66454   0.68181
 Alpha virt. eigenvalues --    0.70311   0.76368   0.77025   0.78614   0.79544
 Alpha virt. eigenvalues --    0.82981   0.83245   0.88298   0.88648   0.90008
 Alpha virt. eigenvalues --    0.91719   0.93172   0.93767   0.94120   0.94656
 Alpha virt. eigenvalues --    0.95750   0.98202   1.00455   1.01973   1.02450
 Alpha virt. eigenvalues --    1.02737   1.03574   1.04403   1.07033   1.09026
 Alpha virt. eigenvalues --    1.11889   1.12691   1.15927   1.16716   1.17947
 Alpha virt. eigenvalues --    1.18199   1.22401   1.22754   1.24669   1.26035
 Alpha virt. eigenvalues --    1.27636   1.28764   1.29579   1.36050   1.37539
 Alpha virt. eigenvalues --    1.38985   1.41514   1.46240   1.47883   1.55073
 Alpha virt. eigenvalues --    1.56962   2.13045   2.15562   2.16299   2.19381
 Alpha virt. eigenvalues --    2.23466   2.28286   2.29401   2.30299   2.31761
 Alpha virt. eigenvalues --    2.34908   2.37280   2.38119   2.39627   2.41201
 Alpha virt. eigenvalues --    2.47630   2.48208   2.50315   2.53296   2.53790
 Alpha virt. eigenvalues --    2.54718   2.56813   2.59619   2.60434   2.66684
 Alpha virt. eigenvalues --    2.67341   2.70857   2.71913   2.73060   2.73434
 Alpha virt. eigenvalues --    2.74457   2.75463   2.76370   2.78471   2.81787
 Alpha virt. eigenvalues --    2.82692   2.84492   2.87980   2.91773   2.92238
 Alpha virt. eigenvalues --    2.92364   2.94069   2.94784   2.96036   2.97903
 Alpha virt. eigenvalues --    3.00810   3.02748   3.04513   3.04839   3.05974
 Alpha virt. eigenvalues --    3.06240   3.08232   3.09420   3.12411   3.13468
 Alpha virt. eigenvalues --    3.14993   3.17623   3.19485   3.21746   3.23901
 Alpha virt. eigenvalues --    3.25871   3.29816   3.31486   3.31853   3.37591
 Alpha virt. eigenvalues --    3.39651   3.41387   3.41794   3.42332   3.42866
 Alpha virt. eigenvalues --    3.44831   3.46352   3.48886   3.50673   3.51014
 Alpha virt. eigenvalues --    3.60167   3.61299   3.62606   3.62920   3.68987
 Alpha virt. eigenvalues --    3.72358   3.73467   3.74257   3.74854   3.76111
 Alpha virt. eigenvalues --    3.77187   3.78577   3.81035   3.83897   3.84126
 Alpha virt. eigenvalues --    3.85164   3.85202   3.89726   3.90049   3.90287
 Alpha virt. eigenvalues --    3.93241   3.94996   3.96906   3.97447   4.00196
 Alpha virt. eigenvalues --    4.00322   4.02049   4.03187   4.04663   4.06739
 Alpha virt. eigenvalues --    4.06842   4.10275   4.10672   4.11580   4.15404
 Alpha virt. eigenvalues --    4.16541   4.17955   4.22448   4.23165   4.23438
 Alpha virt. eigenvalues --    4.23896   4.29585   4.30254   4.30980   4.32520
 Alpha virt. eigenvalues --    4.38656   4.39329   4.44347   4.51530   4.51681
 Alpha virt. eigenvalues --    4.55350   4.63204   4.63907   4.64443   4.69299
 Alpha virt. eigenvalues --    4.76300   4.79859   4.80461   4.80771   4.80974
 Alpha virt. eigenvalues --    4.84807   4.85667   4.86024   4.87095   4.91977
 Alpha virt. eigenvalues --    4.92936   4.93622   5.04742   5.06237   5.14638
 Alpha virt. eigenvalues --    5.15092   5.16027   5.20785   5.21062   5.26956
 Alpha virt. eigenvalues --    5.28389   5.33267   5.33948   5.35209   5.35526
 Alpha virt. eigenvalues --    5.37461   5.38649   5.41351   5.42503   5.45777
 Alpha virt. eigenvalues --    5.46665   5.89623   5.92369   5.94311   5.94559
 Alpha virt. eigenvalues --    5.95122   5.95216  10.41348  10.43804  10.69090
 Alpha virt. eigenvalues --   10.72880  11.17331  11.80001  11.89983  13.42557
 Alpha virt. eigenvalues --   13.45362  15.72771  15.72786  15.74712  15.75114
 Alpha virt. eigenvalues --   15.81120  15.81560  15.94928  16.41140  16.41140
 Alpha virt. eigenvalues --   16.41347  16.41347  16.41556  16.41587  16.42083
 Alpha virt. eigenvalues --   16.42090  16.43089
  Beta  occ. eigenvalues -- -353.81804 -44.87313 -39.43873 -39.43870 -39.43603
  Beta  occ. eigenvalues --  -11.66164 -11.64864 -11.57169 -11.57161  -6.15251
  Beta  occ. eigenvalues --   -4.35994  -4.35743  -4.35738  -1.42836  -1.37515
  Beta  occ. eigenvalues --   -1.30862  -1.30531  -1.30209  -1.30207  -1.29890
  Beta  occ. eigenvalues --   -1.21456  -1.17517  -0.99048  -0.97527  -0.97140
  Beta  occ. eigenvalues --   -0.90219  -0.89414  -0.87355  -0.85350  -0.84683
  Beta  occ. eigenvalues --   -0.84173
  Beta virt. eigenvalues --   -0.43573  -0.27507  -0.27382  -0.24582  -0.16314
  Beta virt. eigenvalues --   -0.12949  -0.11810  -0.10899  -0.09649  -0.09550
  Beta virt. eigenvalues --   -0.09234  -0.07378  -0.05530  -0.04927  -0.03444
  Beta virt. eigenvalues --   -0.02899  -0.01077  -0.00130   0.01484   0.05774
  Beta virt. eigenvalues --    0.06848   0.06971   0.08116   0.08311   0.09071
  Beta virt. eigenvalues --    0.09670   0.12953   0.15227   0.20542   0.23352
  Beta virt. eigenvalues --    0.23942   0.25374   0.26526   0.26700   0.27286
  Beta virt. eigenvalues --    0.28143   0.29537   0.31314   0.31908   0.33238
  Beta virt. eigenvalues --    0.33652   0.35231   0.36205   0.37462   0.38325
  Beta virt. eigenvalues --    0.38719   0.39780   0.41392   0.44978   0.46463
  Beta virt. eigenvalues --    0.52012   0.53856   0.55569   0.59264   0.60486
  Beta virt. eigenvalues --    0.62279   0.63764   0.65374   0.66454   0.68181
  Beta virt. eigenvalues --    0.70311   0.76368   0.77025   0.78614   0.79544
  Beta virt. eigenvalues --    0.82981   0.83245   0.88298   0.88648   0.90008
  Beta virt. eigenvalues --    0.91719   0.93172   0.93767   0.94120   0.94656
  Beta virt. eigenvalues --    0.95750   0.98202   1.00455   1.01973   1.02450
  Beta virt. eigenvalues --    1.02737   1.03574   1.04403   1.07033   1.09026
  Beta virt. eigenvalues --    1.11889   1.12691   1.15927   1.16716   1.17947
  Beta virt. eigenvalues --    1.18199   1.22401   1.22754   1.24669   1.26035
  Beta virt. eigenvalues --    1.27636   1.28764   1.29579   1.36050   1.37539
  Beta virt. eigenvalues --    1.38985   1.41514   1.46240   1.47883   1.55073
  Beta virt. eigenvalues --    1.56962   2.13045   2.15562   2.16299   2.19381
  Beta virt. eigenvalues --    2.23466   2.28286   2.29401   2.30299   2.31761
  Beta virt. eigenvalues --    2.34908   2.37280   2.38119   2.39627   2.41201
  Beta virt. eigenvalues --    2.47630   2.48208   2.50315   2.53296   2.53790
  Beta virt. eigenvalues --    2.54718   2.56813   2.59619   2.60434   2.66684
  Beta virt. eigenvalues --    2.67341   2.70857   2.71913   2.73060   2.73434
  Beta virt. eigenvalues --    2.74457   2.75463   2.76370   2.78471   2.81787
  Beta virt. eigenvalues --    2.82692   2.84492   2.87980   2.91773   2.92238
  Beta virt. eigenvalues --    2.92364   2.94069   2.94784   2.96036   2.97903
  Beta virt. eigenvalues --    3.00810   3.02748   3.04513   3.04839   3.05974
  Beta virt. eigenvalues --    3.06240   3.08232   3.09420   3.12411   3.13468
  Beta virt. eigenvalues --    3.14993   3.17623   3.19485   3.21746   3.23901
  Beta virt. eigenvalues --    3.25871   3.29816   3.31486   3.31853   3.37591
  Beta virt. eigenvalues --    3.39651   3.41387   3.41794   3.42332   3.42866
  Beta virt. eigenvalues --    3.44831   3.46352   3.48886   3.50673   3.51014
  Beta virt. eigenvalues --    3.60167   3.61299   3.62606   3.62920   3.68987
  Beta virt. eigenvalues --    3.72358   3.73467   3.74257   3.74854   3.76111
  Beta virt. eigenvalues --    3.77187   3.78577   3.81035   3.83897   3.84126
  Beta virt. eigenvalues --    3.85164   3.85202   3.89726   3.90049   3.90287
  Beta virt. eigenvalues --    3.93241   3.94996   3.96906   3.97447   4.00196
  Beta virt. eigenvalues --    4.00322   4.02049   4.03187   4.04663   4.06739
  Beta virt. eigenvalues --    4.06842   4.10275   4.10672   4.11580   4.15404
  Beta virt. eigenvalues --    4.16541   4.17955   4.22448   4.23165   4.23438
  Beta virt. eigenvalues --    4.23896   4.29585   4.30254   4.30980   4.32520
  Beta virt. eigenvalues --    4.38656   4.39329   4.44347   4.51530   4.51681
  Beta virt. eigenvalues --    4.55350   4.63204   4.63907   4.64443   4.69299
  Beta virt. eigenvalues --    4.76300   4.79859   4.80461   4.80771   4.80974
  Beta virt. eigenvalues --    4.84807   4.85667   4.86024   4.87095   4.91977
  Beta virt. eigenvalues --    4.92936   4.93622   5.04742   5.06237   5.14638
  Beta virt. eigenvalues --    5.15092   5.16027   5.20785   5.21062   5.26956
  Beta virt. eigenvalues --    5.28389   5.33267   5.33948   5.35209   5.35526
  Beta virt. eigenvalues --    5.37461   5.38649   5.41351   5.42503   5.45777
  Beta virt. eigenvalues --    5.46665   5.89623   5.92369   5.94311   5.94559
  Beta virt. eigenvalues --    5.95122   5.95216  10.41348  10.43804  10.69090
  Beta virt. eigenvalues --   10.72880  11.17331  11.80001  11.89983  13.42557
  Beta virt. eigenvalues --   13.45362  15.72771  15.72786  15.74712  15.75114
  Beta virt. eigenvalues --   15.81120  15.81560  15.94928  16.41140  16.41140
  Beta virt. eigenvalues --   16.41347  16.41347  16.41556  16.41587  16.42083
  Beta virt. eigenvalues --   16.42090  16.43089
          Condensed to atoms (all electrons):
               1          2          3          4          5          6
     1  Zn  28.347308   0.185451  -0.006897   0.004653   0.005486   0.002428
     2  C    0.185451   5.092720   0.316424   0.399400   0.399569  -0.006510
     3  C   -0.006897   0.316424   4.812238  -0.027045  -0.027210   0.380053
     4  H    0.004653   0.399400  -0.027045   0.439410  -0.024818  -0.002605
     5  H    0.005486   0.399569  -0.027210  -0.024818   0.438039  -0.002651
     6  H    0.002428  -0.006510   0.380053  -0.002605  -0.002651   0.434467
     7  H    0.001824  -0.028734   0.414459  -0.004210   0.003636  -0.015810
     8  H    0.001758  -0.029477   0.414342   0.003707  -0.004263  -0.015735
     9  C    0.185451  -0.003337  -0.000206  -0.000245  -0.000288   0.000001
    10  C   -0.006897  -0.000206  -0.000006  -0.000009  -0.000017   0.000000
    11  H    0.004653  -0.000245  -0.000009  -0.000011   0.000008   0.000000
    12  H    0.005486  -0.000288  -0.000017   0.000008   0.000001   0.000000
    13  H    0.002428   0.000001   0.000000   0.000000   0.000000   0.000000
    14  H    0.001824  -0.000008  -0.000003   0.000009   0.000003   0.000000
    15  H    0.001758  -0.000011  -0.000001  -0.000005   0.000026   0.000000
               7          8          9         10         11         12
     1  Zn   0.001824   0.001758   0.185451  -0.006897   0.004653   0.005486
     2  C   -0.028734  -0.029477  -0.003337  -0.000206  -0.000245  -0.000288
     3  C    0.414459   0.414342  -0.000206  -0.000006  -0.000009  -0.000017
     4  H   -0.004210   0.003707  -0.000245  -0.000009  -0.000011   0.000008
     5  H    0.003636  -0.004263  -0.000288  -0.000017   0.000008   0.000001
     6  H   -0.015810  -0.015735   0.000001   0.000000   0.000000   0.000000
     7  H    0.499350  -0.030200  -0.000008  -0.000003   0.000009   0.000003
     8  H   -0.030200   0.500923  -0.000011  -0.000001  -0.000005   0.000026
     9  C   -0.000008  -0.000011   5.092720   0.316424   0.399400   0.399569
    10  C   -0.000003  -0.000001   0.316424   4.812238  -0.027045  -0.027210
    11  H    0.000009  -0.000005   0.399400  -0.027045   0.439410  -0.024818
    12  H    0.000003   0.000026   0.399569  -0.027210  -0.024818   0.438039
    13  H    0.000000   0.000000  -0.006510   0.380053  -0.002605  -0.002651
    14  H    0.000000   0.000001  -0.028734   0.414459  -0.004210   0.003636
    15  H    0.000001  -0.000003  -0.029477   0.414342   0.003707  -0.004263
              13         14         15
     1  Zn   0.002428   0.001824   0.001758
     2  C    0.000001  -0.000008  -0.000011
     3  C    0.000000  -0.000003  -0.000001
     4  H    0.000000   0.000009  -0.000005
     5  H    0.000000   0.000003   0.000026
     6  H    0.000000   0.000000   0.000000
     7  H    0.000000   0.000000   0.000001
     8  H    0.000000   0.000001  -0.000003
     9  C   -0.006510  -0.028734  -0.029477
    10  C    0.380053   0.414459   0.414342
    11  H   -0.002605  -0.004210   0.003707
    12  H   -0.002651   0.003636  -0.004263
    13  H    0.434467  -0.015810  -0.015735
    14  H   -0.015810   0.499350  -0.030200
    15  H   -0.015735  -0.030200   0.500923
          Atomic-Atomic Spin Densities.
               1          2          3          4          5          6
     1  Zn   0.000000   0.134452  -0.016607  -0.001703  -0.001556   0.001216
     2  C    0.134452   0.490826  -0.023810   0.014516   0.014446  -0.012901
     3  C   -0.016607  -0.023810  -0.014578   0.001772   0.001761   0.026160
     4  H   -0.001703   0.014516   0.001772   0.002855   0.002686  -0.001040
     5  H   -0.001556   0.014446   0.001761   0.002686   0.002451  -0.001039
     6  H    0.001216  -0.012901   0.026160  -0.001040  -0.001039   0.081845
     7  H   -0.001146  -0.000738   0.004025   0.000397   0.000018  -0.002741
     8  H   -0.001222  -0.000757   0.004085   0.000026   0.000399  -0.002756
     9  C   -0.134452   0.000000   0.000356   0.000168   0.000183  -0.000005
    10  C    0.016607  -0.000356   0.000000  -0.000016  -0.000020   0.000000
    11  H    0.001703  -0.000168   0.000016   0.000000   0.000000   0.000000
    12  H    0.001556  -0.000183   0.000020   0.000000   0.000000  -0.000001
    13  H   -0.001216   0.000005   0.000000   0.000000   0.000001   0.000000
    14  H    0.001146  -0.000042   0.000001  -0.000001  -0.000001   0.000000
    15  H    0.001222  -0.000034   0.000001   0.000000  -0.000001   0.000000
               7          8          9         10         11         12
     1  Zn  -0.001146  -0.001222  -0.134452   0.016607   0.001703   0.001556
     2  C   -0.000738  -0.000757   0.000000  -0.000356  -0.000168  -0.000183
     3  C    0.004025   0.004085   0.000356   0.000000   0.000016   0.000020
     4  H    0.000397   0.000026   0.000168  -0.000016   0.000000   0.000000
     5  H    0.000018   0.000399   0.000183  -0.000020   0.000000   0.000000
     6  H   -0.002741  -0.002756  -0.000005   0.000000   0.000000  -0.000001
     7  H    0.007411   0.000914   0.000042  -0.000001   0.000001   0.000001
     8  H    0.000914   0.007527   0.000034  -0.000001   0.000000   0.000001
     9  C    0.000042   0.000034  -0.490826   0.023810  -0.014516  -0.014446
    10  C   -0.000001  -0.000001   0.023810   0.014578  -0.001772  -0.001761
    11  H    0.000001   0.000000  -0.014516  -0.001772  -0.002855  -0.002686
    12  H    0.000001   0.000001  -0.014446  -0.001761  -0.002686  -0.002451
    13  H    0.000000   0.000000   0.012901  -0.026160   0.001040   0.001039
    14  H    0.000000   0.000000   0.000738  -0.004025  -0.000397  -0.000018
    15  H    0.000000   0.000000   0.000757  -0.004085  -0.000026  -0.000399
              13         14         15
     1  Zn  -0.001216   0.001146   0.001222
     2  C    0.000005  -0.000042  -0.000034
     3  C    0.000000   0.000001   0.000001
     4  H    0.000000  -0.000001   0.000000
     5  H    0.000001  -0.000001  -0.000001
     6  H    0.000000   0.000000   0.000000
     7  H    0.000000   0.000000   0.000000
     8  H    0.000000   0.000000   0.000000
     9  C    0.012901   0.000738   0.000757
    10  C   -0.026160  -0.004025  -0.004085
    11  H    0.001040  -0.000397  -0.000026
    12  H    0.001039  -0.000018  -0.000399
    13  H   -0.081845   0.002741   0.002756
    14  H    0.002741  -0.007411  -0.000914
    15  H    0.002756  -0.000914  -0.007527
 Mulliken charges and spin densities:
               1          2
     1  Zn   1.263288   0.000000
     2  C   -0.324746   0.615255
     3  C   -0.276121  -0.016799
     4  H    0.211760   0.019661
     5  H    0.212478   0.019327
     6  H    0.226363   0.088737
     7  H    0.159684   0.008184
     8  H    0.158939   0.008250
     9  C   -0.324746  -0.615255
    10  C   -0.276121   0.016799
    11  H    0.211760  -0.019661
    12  H    0.212478  -0.019327
    13  H    0.226363  -0.088737
    14  H    0.159684  -0.008184
    15  H    0.158939  -0.008250
 Sum of Mulliken charges =   2.00000   0.00000
 Mulliken charges and spin densities with hydrogens summed into heavy atoms:
               1          2
     1  Zn   1.263288   0.000000
     2  C    0.099492   0.654243
     3  C    0.268864   0.088372
     9  C    0.099492  -0.654243
    10  C    0.268864  -0.088372
 Electronic spatial extent (au):  <R**2>=            909.2036
 Charge=              2.0000 electrons
 Dipole moment (field-independent basis, Debye):
    X=              0.0000    Y=              0.0000    Z=              0.2303  Tot=              0.2303
 Quadrupole moment (field-independent basis, Debye-Ang):
   XX=            -27.2540   YY=              5.6351   ZZ=            -32.2147
   XY=              9.2611   XZ=              0.0000   YZ=              0.0000
 Traceless Quadrupole moment (field-independent basis, Debye-Ang):
   XX=             -9.3095   YY=             23.5796   ZZ=            -14.2701
   XY=              9.2611   XZ=              0.0000   YZ=              0.0000
 Octapole moment (field-independent basis, Debye-Ang**2):
  XXX=              0.0000  YYY=              0.0000  ZZZ=              3.9429  XYY=              0.0000
  XXY=              0.0000  XXZ=             -0.7876  XZZ=              0.0000  YZZ=              0.0000
  YYZ=             -2.5227  XYZ=             -3.1781
 Hexadecapole moment (field-independent basis, Debye-Ang**3):
 XXXX=           -191.8504 YYYY=           -469.0991 ZZZZ=            -54.9818 XXXY=           -109.8634
 XXXZ=              0.0000 YYYX=            -33.9340 YYYZ=              0.0000 ZZZX=              0.0000
 ZZZY=              0.0000 XXYY=           -115.7476 XXZZ=            -39.3813 YYZZ=           -142.7419
 XXYZ=              0.0000 YYXZ=              0.0000 ZZXY=            -47.2882
 N-N= 3.207392817687D+02 E-N=-5.239598441775D+03  KE= 1.934459697036D+03
 1\1\GINC-GAMBA\SP\UCCSD(T)-FC\Gen\C4H10Zn1(2+)\IRIKURA\27-May-2017\0\\
 # CCSD(T,maxcyc=100)/GEN gfinput geom=check scf=xqc guess=check\\BEB s
 tep 10: low-spin CCSD(T) for dication of ZnEt2\\2,1\Zn,0,0.,0.,0.09205
 9\C,0,0.,1.933945,0.090127\C,0,1.360973,2.577345,-0.233751\H,0,-0.3465
 94,2.294125,1.069841\H,0,-0.75069,2.294418,-0.628225\H,0,1.311324,3.67
 5407,-0.22301\H,0,2.134924,2.28887,0.488877\H,0,1.727459,2.287037,-1.2
 26622\C,0,0.,-1.933945,0.090127\C,0,-1.360973,-2.577345,-0.233751\H,0,
 0.346594,-2.294125,1.069841\H,0,0.75069,-2.294418,-0.628225\H,0,-1.311
 324,-3.675407,-0.22301\H,0,-2.134924,-2.28887,0.488877\H,0,-1.727459,-
 2.287037,-1.226622\\Version=ES64L-G09RevD.01\HF=-1934.3748841\MP2=-193
 5.53254\MP3=-1935.5238061\MP4D=-1935.5567711\MP4DQ=-1935.5415166\PUHF=
 -1934.391986\PMP2-0=-1935.5494662\PMP3-0=-1935.5404809\MP4SDQ=-1935.55
 41749\CCSD=-1935.5498872\CCSD(T)=-1935.5926913\S2=0.970686\S2-1=0.9494
 71\S2A=0.121416\RMSD=3.793e-10\PG=C02 [C2(Zn1),X(C4H10)]\\@


 CONFIDENCE IS WHAT YOU FEEL BEFORE YOU FULLY
 COMPREHEND THE SITUATION.
 Job cpu time:       1 days 17 hours 16 minutes 26.9 seconds.
 File lengths (MBytes):  RWF=  32566 Int=      0 D2E=      0 Chk=     21 Scr=      1
 Normal termination of Gaussian 09 at Sat May 27 05:01:49 2017.
