 Entering Gaussian System, Link 0=g09
 Initial command:
 /usr/local/apps/g09/l1.exe "/wrk/irikura/Gau-4427.inp" -scrdir="/wrk/irikura/"
 Entering Link 1 = /usr/local/apps/g09/l1.exe PID=      4429.
  
 Copyright (c) 1988,1990,1992,1993,1995,1998,2003,2009,2013,
            Gaussian, Inc.  All Rights Reserved.
  
 This is part of the Gaussian(R) 09 program.  It is based on
 the Gaussian(R) 03 system (copyright 2003, Gaussian, Inc.),
 the Gaussian(R) 98 system (copyright 1998, Gaussian, Inc.),
 the Gaussian(R) 94 system (copyright 1995, Gaussian, Inc.),
 the Gaussian 92(TM) system (copyright 1992, Gaussian, Inc.),
 the Gaussian 90(TM) system (copyright 1990, Gaussian, Inc.),
 the Gaussian 88(TM) system (copyright 1988, Gaussian, Inc.),
 the Gaussian 86(TM) system (copyright 1986, Carnegie Mellon
 University), and the Gaussian 82(TM) system (copyright 1983,
 Carnegie Mellon University). Gaussian is a federally registered
 trademark of Gaussian, Inc.
  
 This software contains proprietary and confidential information,
 including trade secrets, belonging to Gaussian, Inc.
  
 This software is provided under written license and may be
 used, copied, transmitted, or stored only in accord with that
 written license.
  
 The following legend is applicable only to US Government
 contracts under FAR:
  
                    RESTRICTED RIGHTS LEGEND
  
 Use, reproduction and disclosure by the US Government is
 subject to restrictions as set forth in subparagraphs (a)
 and (c) of the Commercial Computer Software - Restricted
 Rights clause in FAR 52.227-19.
  
 Gaussian, Inc.
 340 Quinnipiac St., Bldg. 40, Wallingford CT 06492
  
  
 ---------------------------------------------------------------
 Warning -- This program may not be used in any manner that
 competes with the business of Gaussian, Inc. or will provide
 assistance to any competitor of Gaussian, Inc.  The licensee
 of this program is prohibited from giving any competitor of
 Gaussian, Inc. access to this program.  By using this program,
 the user acknowledges that Gaussian, Inc. is engaged in the
 business of creating and licensing software in the field of
 computational chemistry and represents and warrants to the
 licensee that it is not a competitor of Gaussian, Inc. and that
 it will not use this program in any manner prohibited above.
 ---------------------------------------------------------------
  

 Cite this work as:
 Gaussian 09, Revision D.01,
 M. J. Frisch, G. W. Trucks, H. B. Schlegel, G. E. Scuseria, 
 M. A. Robb, J. R. Cheeseman, G. Scalmani, V. Barone, B. Mennucci, 
 G. A. Petersson, H. Nakatsuji, M. Caricato, X. Li, H. P. Hratchian, 
 A. F. Izmaylov, J. Bloino, G. Zheng, J. L. Sonnenberg, M. Hada, 
 M. Ehara, K. Toyota, R. Fukuda, J. Hasegawa, M. Ishida, T. Nakajima, 
 Y. Honda, O. Kitao, H. Nakai, T. Vreven, J. A. Montgomery, Jr., 
 J. E. Peralta, F. Ogliaro, M. Bearpark, J. J. Heyd, E. Brothers, 
 K. N. Kudin, V. N. Staroverov, T. Keith, R. Kobayashi, J. Normand, 
 K. Raghavachari, A. Rendell, J. C. Burant, S. S. Iyengar, J. Tomasi, 
 M. Cossi, N. Rega, J. M. Millam, M. Klene, J. E. Knox, J. B. Cross, 
 V. Bakken, C. Adamo, J. Jaramillo, R. Gomperts, R. E. Stratmann, 
 O. Yazyev, A. J. Austin, R. Cammi, C. Pomelli, J. W. Ochterski, 
 R. L. Martin, K. Morokuma, V. G. Zakrzewski, G. A. Voth, 
 P. Salvador, J. J. Dannenberg, S. Dapprich, A. D. Daniels, 
 O. Farkas, J. B. Foresman, J. V. Ortiz, J. Cioslowski, 
 and D. J. Fox, Gaussian, Inc., Wallingford CT, 2013.
 
 ******************************************
 Gaussian 09:  ES64L-G09RevD.01 24-Apr-2013
                25-May-2017 
 ******************************************
 %chk=ZnEt2.chk
 %nprocs=6
 Will use up to    6 processors via shared memory.
 %mem=4000mw
 --------------------------------------------------
 # HF/GEN geom=check guess=check scf=xqc stable=opt
 --------------------------------------------------
 1/29=2,38=1/1;
 2/12=2,40=1/2;
 3/5=7,11=2,14=-4,16=1,25=1,30=1,116=-2/1,2,3;
 4/5=1/1;
 5/5=2,8=3,13=1,38=6/2,8;
 6/7=2,8=2,9=2,10=2,28=1/1;
 8/6=1,10=90,11=11/1;
 9/8=-3,42=1,46=1/14;
 5/5=2,8=3,17=40,38=6/8(-2);
 6/7=2,8=2,9=2,10=2,28=1/1;
 99/5=1,9=1/99;
 --------------------------------------
 HF stabilization to precede BEB step 6
 --------------------------------------
 Structure from the checkpoint file:  "ZnEt2.chk"
 Charge =  0 Multiplicity = 1
 Redundant internal coordinates found in file.
 Zn,0,0.,0.,0.092059
 C,0,0.,1.933945,0.090127
 C,0,1.360973,2.577345,-0.233751
 H,0,-0.346594,2.294125,1.069841
 H,0,-0.75069,2.294418,-0.628225
 H,0,1.311324,3.675407,-0.22301
 H,0,2.134924,2.28887,0.488877
 H,0,1.727459,2.287037,-1.226622
 C,0,0.,-1.933945,0.090127
 C,0,-1.360973,-2.577345,-0.233751
 H,0,0.346594,-2.294125,1.069841
 H,0,0.75069,-2.294418,-0.628225
 H,0,-1.311324,-3.675407,-0.22301
 H,0,-2.134924,-2.28887,0.488877
 H,0,-1.727459,-2.287037,-1.226622
 Recover connectivity data from disk.
                          Input orientation:                          
 ---------------------------------------------------------------------
 Center     Atomic      Atomic             Coordinates (Angstroms)
 Number     Number       Type             X           Y           Z
 ---------------------------------------------------------------------
      1         30           0        0.000000    0.000000    0.092059
      2          6           0        0.000000    1.933945    0.090127
      3          6           0        1.360973    2.577345   -0.233751
      4          1           0       -0.346594    2.294125    1.069841
      5          1           0       -0.750690    2.294418   -0.628225
      6          1           0        1.311324    3.675407   -0.223010
      7          1           0        2.134924    2.288870    0.488877
      8          1           0        1.727459    2.287037   -1.226622
      9          6           0        0.000000   -1.933945    0.090127
     10          6           0       -1.360973   -2.577345   -0.233751
     11          1           0        0.346594   -2.294125    1.069841
     12          1           0        0.750690   -2.294418   -0.628225
     13          1           0       -1.311324   -3.675407   -0.223010
     14          1           0       -2.134924   -2.288870    0.488877
     15          1           0       -1.727459   -2.287037   -1.226622
 ---------------------------------------------------------------------
                    Distance matrix (angstroms):
                    1          2          3          4          5
     1  Zn   0.000000
     2  C    1.933946   0.000000
     3  C    2.932764   1.539840   0.000000
     4  H    2.517776   1.099862   2.166876   0.000000
     5  H    2.519265   1.099775   2.166744   1.745486   0.000000
     6  H    3.915029   2.202343   1.099236   2.515571   2.514604
     7  H    3.155042   2.200653   1.097456   2.548623   3.094304
     8  H    3.154928   2.200595   1.097444   3.094429   2.549383
     9  C    1.933946   3.867890   4.723228   4.353911   4.354150
    10  C    2.932764   4.723228   5.829221   5.143883   4.925660
    11  H    2.517776   4.353911   5.143883   4.640318   5.014199
    12  H    2.519265   4.354150   4.925660   5.014199   4.828204
    13  H    3.915029   5.769095   6.799867   6.183646   6.009769
    14  H    3.155042   4.748586   6.035191   4.953735   4.916355
    15  H    3.154928   4.747066   5.846915   5.307313   4.722487
                    6          7          8          9         10
     6  H    0.000000
     7  H    1.762834   0.000000
     8  H    1.762945   1.763227   0.000000
     9  C    5.769095   4.748586   4.747066   0.000000
    10  C    6.799867   6.035191   5.846915   1.539840   0.000000
    11  H    6.183646   4.953735   5.307313   1.099862   2.166876
    12  H    6.009769   4.916355   4.722487   1.099775   2.166744
    13  H    7.804662   6.925028   6.766992   2.202343   1.099236
    14  H    6.925028   6.259976   6.228954   2.200653   1.097456
    15  H    6.766992   6.228954   5.732243   2.200595   1.097444
                   11         12         13         14         15
    11  H    0.000000
    12  H    1.745486   0.000000
    13  H    2.515571   2.514604   0.000000
    14  H    2.548623   3.094304   1.762834   0.000000
    15  H    3.094429   2.549383   1.762945   1.763227   0.000000
 Stoichiometry    C4H10Zn
 Framework group  C2[C2(Zn),X(C4H10)]
 Deg. of freedom    20
 Full point group                 C2      NOp   2
 Largest Abelian subgroup         C2      NOp   2
 Largest concise Abelian subgroup C2      NOp   2
                         Standard orientation:                         
 ---------------------------------------------------------------------
 Center     Atomic      Atomic             Coordinates (Angstroms)
 Number     Number       Type             X           Y           Z
 ---------------------------------------------------------------------
      1         30           0        0.000000    0.000000    0.092059
      2          6           0        0.000000    1.933945    0.090127
      3          6           0        1.360973    2.577345   -0.233751
      4          1           0       -0.346594    2.294125    1.069841
      5          1           0       -0.750690    2.294418   -0.628225
      6          1           0        1.311324    3.675407   -0.223010
      7          1           0        2.134924    2.288870    0.488877
      8          1           0        1.727459    2.287037   -1.226622
      9          6           0        0.000000   -1.933945    0.090127
     10          6           0       -1.360973   -2.577345   -0.233751
     11          1           0        0.346594   -2.294125    1.069841
     12          1           0        0.750690   -2.294418   -0.628225
     13          1           0       -1.311324   -3.675407   -0.223010
     14          1           0       -2.134924   -2.288870    0.488877
     15          1           0       -1.727459   -2.287037   -1.226622
 ---------------------------------------------------------------------
 Rotational constants (GHZ):     14.6723335      1.3797086      1.3187032
 General basis read from cards:  (5D, 7F)
 There are   191 symmetry adapted cartesian basis functions of A   symmetry.
 There are   183 symmetry adapted cartesian basis functions of B   symmetry.
 There are   166 symmetry adapted basis functions of A   symmetry.
 There are   162 symmetry adapted basis functions of B   symmetry.
   328 basis functions,   725 primitive gaussians,   374 cartesian basis functions
    32 alpha electrons       32 beta electrons
       nuclear repulsion energy       320.7392817687 Hartrees.
 NAtoms=   15 NActive=   15 NUniq=    8 SFac= 3.52D+00 NAtFMM=   60 NAOKFM=F Big=F
 Integral buffers will be    131072 words long.
 Raffenetti 2 integral format.
 Two-electron integral symmetry is turned on.
 One-electron integrals computed using PRISM.
 NBasis=   328 RedAO= T EigKep=  6.20D-04  NBF=   166   162
 NBsUse=   328 1.00D-06 EigRej= -1.00D+00 NBFU=   166   162
 Initial guess from the checkpoint file:  "ZnEt2.chk"
 B after Tr=     0.000000    0.000000    0.000000
         Rot=    1.000000    0.000000    0.000000    0.000000 Ang=   0.00 deg.
 Initial guess orbital symmetries:
 Alpha Orbitals:
       Occupied  (A) (A) (B) (A) (B) (B) (A) (A) (B) (A) (B) (B)
                 (A) (A) (B) (A) (B) (A) (B) (A) (B) (A) (A) (B)
                 (A) (B) (B) (A) (A) (B) (A) (B)
       Virtual   (A) (B) (A) (B) (A) (A) (A) (B) (A) (B) (A) (B)
                 (B) (A) (B) (B) (A) (A) (A) (B) (A) (B) (B) (B)
                 (A) (A) (B) (A) (B) (A) (A) (B) (B) (A) (A) (B)
                 (B) (A) (B) (A) (B) (A) (B) (A) (B) (A) (B) (A)
                 (B) (B) (A) (A) (B) (A) (B) (B) (A) (A) (B) (A)
                 (B) (B) (A) (A) (A) (B) (A) (B) (A) (B) (A) (B)
                 (A) (B) (B) (A) (A) (B) (B) (A) (B) (A) (B) (A)
                 (B) (A) (B) (A) (A) (B) (B) (A) (A) (B) (A) (B)
                 (B) (B) (A) (B) (A) (A) (A) (B) (A) (B) (A) (B)
                 (A) (B) (A) (B) (A) (B) (B) (A) (B) (A) (A) (B)
                 (B) (A) (A) (A) (B) (B) (A) (B) (B) (A) (B) (A)
                 (A) (B) (B) (A) (B) (A) (B) (A) (A) (B) (A) (B)
                 (A) (B) (B) (A) (A) (B) (A) (B) (A) (B) (A) (B)
                 (B) (A) (B) (A) (A) (A) (B) (B) (A) (B) (B) (A)
                 (A) (A) (B) (B) (A) (A) (A) (A) (A) (A) (A) (A)
                 (A) (A) (A) (A) (A) (A) (A) (A) (A) (A) (A) (A)
                 (A) (A) (A) (A) (A) (A) (A) (A) (A) (A) (A) (A)
                 (A) (A) (A) (A) (A) (A) (A) (A) (A) (A) (A) (A)
                 (A) (A) (A) (A) (A) (A) (A) (A) (A) (A) (A) (A)
                 (A) (A) (A) (A) (A) (A) (B) (B) (B) (B) (B) (B)
                 (B) (B) (B) (B) (B) (B) (B) (B) (B) (B) (B) (B)
                 (B) (B) (B) (B) (B) (B) (B) (B) (B) (B) (B) (B)
                 (B) (B) (B) (B) (B) (B) (B) (B) (B) (B) (B) (B)
                 (B) (B) (B) (B) (B) (B) (B) (B) (B) (B) (B) (B)
                 (B) (B) (B) (B) (B) (B) (B) (B)
 Beta  Orbitals:
       Occupied  (A) (A) (B) (A) (B) (A) (B) (A) (B) (A) (B) (A)
                 (B) (A) (B) (A) (B) (B) (A) (A) (B) (A) (A) (B)
                 (A) (B) (B) (A) (A) (B) (A) (B)
       Virtual   (B) (A) (A) (B) (A) (A) (B) (A) (B) (A) (A) (B)
                 (B) (A) (B) (B) (A) (A) (B) (A) (A) (B) (B) (B)
                 (A) (A) (B) (A) (B) (A) (B) (A) (B) (A) (A) (B)
                 (B) (A) (B) (A) (B) (A) (B) (A) (B) (A) (B) (A)
                 (B) (A) (B) (A) (B) (A) (B) (A) (B) (A) (B) (A)
                 (B) (B) (A) (A) (B) (A) (A) (B) (A) (B) (A) (B)
                 (A) (B) (B) (A) (A) (B) (A) (B) (A) (B) (B) (A)
                 (B) (A) (B) (A) (A) (B) (B) (A) (A) (B) (A) (B)
                 (B) (A) (B) (B) (A) (A) (A) (B) (A) (B) (A) (B)
                 (B) (A) (A) (B) (A) (B) (B) (A) (B) (A) (A) (B)
                 (B) (A) (A) (A) (B) (B) (A) (B) (B) (A) (B) (A)
                 (A) (B) (B) (A) (B) (A) (B) (A) (A) (B) (A) (B)
                 (A) (B) (B) (A) (A) (B) (A) (B) (A) (B) (A) (B)
                 (B) (A) (B) (A) (A) (A) (B) (B) (A) (B) (B) (A)
                 (A) (A) (B) (B) (A) (A) (A) (A) (A) (A) (A) (A)
                 (A) (A) (A) (A) (A) (A) (A) (A) (A) (A) (A) (A)
                 (A) (A) (A) (A) (A) (A) (A) (A) (A) (A) (A) (A)
                 (A) (A) (A) (A) (A) (A) (A) (A) (A) (A) (A) (A)
                 (A) (A) (A) (A) (A) (A) (A) (A) (A) (A) (A) (A)
                 (A) (A) (A) (A) (A) (A) (B) (B) (B) (B) (B) (B)
                 (B) (B) (B) (B) (B) (B) (B) (B) (B) (B) (B) (B)
                 (B) (B) (B) (B) (B) (B) (B) (B) (B) (B) (B) (B)
                 (B) (B) (B) (B) (B) (B) (B) (B) (B) (B) (B) (B)
                 (B) (B) (B) (B) (B) (B) (B) (B) (B) (B) (B) (B)
                 (B) (B) (B) (B) (B) (B) (B) (B)
 Initial guess <Sx>= 0.0000 <Sy>= 0.0000 <Sz>= 0.0000 <S**2>= 0.1358 S= 0.1211
 Keep R1 and R2 ints in memory in symmetry-blocked form, NReq=2184082506.
 Requested convergence on RMS density matrix=1.00D-08 within  64 cycles.
 Requested convergence on MAX density matrix=1.00D-06.
 Requested convergence on             energy=1.00D-06.
 No special actions if energy rises.
 SCF Done:  E(UHF) =  -1935.15666825     A.U. after   15 cycles
            NFock= 15  Conv=0.58D-08     -V/T= 2.0000
 <Sx>= 0.0000 <Sy>= 0.0000 <Sz>= 0.0000 <S**2>= 0.0000 S= 0.0000
 <L.S>= 0.000000000000E+00
 Annihilation of the first spin contaminant:
 S**2 before annihilation     0.0000,   after     0.0000
 QCSCF skips out because SCF is already converged.

 **********************************************************************

            Population analysis using the SCF density.

 **********************************************************************

 Orbital symmetries:
 Alpha Orbitals:
       Occupied  (A) (A) (B) (A) (B) (A) (B) (B) (A) (A) (B) (A)
                 (B) (A) (B) (A) (B) (B) (A) (B) (A) (A) (A) (B)
                 (A) (B) (B) (A) (A) (B) (A) (B)
       Virtual   (A) (B) (A) (B) (A) (A) (B) (A) (B) (B) (B) (A)
                 (A) (A) (B) (A) (B) (A) (B) (A) (B) (B) (A) (A)
                 (B) (B) (A) (B) (A) (B) (A) (A) (B) (A) (B) (B)
                 (B) (A) (A) (B) (A) (B) (A) (A) (B) (A) (B) (B)
                 (A) (B) (A) (A) (A) (B) (B) (A) (B) (B) (A) (B)
                 (A) (B) (A) (B) (B) (A) (B) (A) (A) (B) (A) (B)
                 (B) (A) (A) (A) (B) (A) (B) (B) (B) (A) (A) (A)
                 (A) (B) (A) (B) (B) (A) (A) (B) (B) (A) (A) (B)
                 (B) (A) (A) (B) (B) (A) (B) (A) (B) (B) (A) (B)
                 (A) (A) (B) (B) (A) (A) (B) (A) (B) (B) (A) (A)
                 (B) (B) (A) (A) (B) (A) (B) (A) (B) (A) (B) (A)
                 (B) (B) (A) (A) (B) (A) (A) (B) (B) (A) (B) (B)
                 (A) (B) (A) (B) (A) (B) (A) (B) (A) (A) (B) (B)
                 (A) (B) (A) (A) (A) (B) (B) (B) (A) (A) (B) (A)
                 (B) (A) (B) (A) (A) (A) (B) (B) (B) (A) (B) (A)
                 (B) (B) (A) (A) (B) (A) (B) (B) (B) (A) (A) (A)
                 (B) (A) (B) (A) (A) (B) (B) (B) (A) (A) (B) (A)
                 (A) (B) (B) (A) (A) (B) (B) (A) (B) (A) (B) (A)
                 (A) (B) (A) (B) (A) (B) (A) (B) (A) (B) (B) (A)
                 (B) (A) (B) (B) (A) (A) (A) (A) (B) (B) (B) (A)
                 (A) (B) (B) (B) (A) (A) (B) (A) (A) (B) (B) (A)
                 (B) (B) (A) (B) (A) (A) (B) (B) (A) (A) (B) (A)
                 (B) (A) (B) (A) (B) (B) (A) (B) (A) (B) (A) (A)
                 (A) (B) (B) (A) (A) (B) (B) (A) (A) (B) (B) (A)
                 (B) (B) (A) (A) (B) (A) (B) (A)
 Beta  Orbitals:
       Occupied  (A) (A) (B) (A) (B) (A) (B) (B) (A) (A) (B) (A)
                 (B) (A) (B) (A) (B) (B) (A) (B) (A) (A) (A) (B)
                 (A) (B) (B) (A) (A) (B) (A) (B)
       Virtual   (A) (B) (A) (B) (A) (A) (B) (A) (B) (B) (B) (A)
                 (A) (A) (B) (A) (B) (A) (B) (A) (B) (B) (A) (A)
                 (B) (B) (A) (B) (A) (B) (A) (A) (B) (A) (B) (B)
                 (B) (A) (A) (B) (A) (B) (A) (A) (B) (A) (B) (B)
                 (A) (B) (A) (A) (A) (B) (B) (A) (B) (B) (A) (B)
                 (A) (B) (A) (B) (B) (A) (B) (A) (A) (B) (A) (B)
                 (B) (A) (A) (A) (B) (A) (B) (B) (B) (A) (A) (A)
                 (A) (B) (A) (B) (B) (A) (A) (B) (B) (A) (A) (B)
                 (B) (A) (A) (B) (B) (A) (B) (A) (B) (B) (A) (B)
                 (A) (A) (B) (B) (A) (A) (B) (A) (B) (B) (A) (A)
                 (B) (B) (A) (A) (B) (A) (B) (A) (B) (A) (B) (A)
                 (B) (B) (A) (A) (B) (A) (A) (B) (B) (A) (B) (B)
                 (A) (B) (A) (B) (A) (B) (A) (B) (A) (A) (B) (B)
                 (A) (B) (A) (A) (A) (B) (B) (B) (A) (A) (B) (A)
                 (B) (A) (B) (A) (A) (A) (B) (B) (B) (A) (B) (A)
                 (B) (B) (A) (A) (B) (A) (B) (B) (B) (A) (A) (A)
                 (B) (A) (B) (A) (A) (B) (B) (B) (A) (A) (B) (A)
                 (A) (B) (B) (A) (A) (B) (B) (A) (B) (A) (B) (A)
                 (A) (B) (A) (B) (A) (B) (A) (B) (A) (B) (B) (A)
                 (B) (A) (B) (B) (A) (A) (A) (A) (B) (B) (B) (A)
                 (A) (B) (B) (B) (A) (A) (B) (A) (A) (B) (B) (A)
                 (B) (B) (A) (B) (A) (A) (B) (B) (A) (A) (B) (A)
                 (B) (A) (B) (A) (B) (B) (A) (B) (A) (B) (A) (A)
                 (A) (B) (B) (A) (A) (B) (B) (A) (A) (B) (B) (A)
                 (B) (B) (A) (A) (B) (A) (B) (A)
 The electronic state is 1-A.
 Alpha  occ. eigenvalues -- -353.29735 -44.36066 -38.92536 -38.92524 -38.92111
 Alpha  occ. eigenvalues --  -11.20919 -11.20919 -11.18637 -11.18636  -5.63575
 Alpha  occ. eigenvalues --   -3.84001  -3.83979  -3.83647  -0.99493  -0.99015
 Alpha  occ. eigenvalues --   -0.83246  -0.80837  -0.78667  -0.78653  -0.78314
 Alpha  occ. eigenvalues --   -0.78209  -0.75093  -0.58090  -0.57663  -0.55782
 Alpha  occ. eigenvalues --   -0.55603  -0.49037  -0.48726  -0.47206  -0.46832
 Alpha  occ. eigenvalues --   -0.39970  -0.33929
 Alpha virt. eigenvalues --    0.07877   0.08077   0.08289   0.14864   0.18201
 Alpha virt. eigenvalues --    0.20423   0.20906   0.21064   0.21509   0.22077
 Alpha virt. eigenvalues --    0.23715   0.25169   0.26164   0.27076   0.29497
 Alpha virt. eigenvalues --    0.32117   0.33653   0.35638   0.37263   0.39986
 Alpha virt. eigenvalues --    0.40299   0.41428   0.41823   0.43365   0.44459
 Alpha virt. eigenvalues --    0.48100   0.51292   0.57095   0.58680   0.61431
 Alpha virt. eigenvalues --    0.61797   0.62238   0.62684   0.64525   0.64589
 Alpha virt. eigenvalues --    0.65508   0.66937   0.67113   0.68586   0.68768
 Alpha virt. eigenvalues --    0.69373   0.69786   0.72950   0.73407   0.75752
 Alpha virt. eigenvalues --    0.77233   0.78210   0.81849   0.82509   0.88728
 Alpha virt. eigenvalues --    0.91160   0.93598   0.96878   0.97675   0.98596
 Alpha virt. eigenvalues --    1.00968   1.05179   1.08240   1.08477   1.09514
 Alpha virt. eigenvalues --    1.11115   1.13039   1.16631   1.18355   1.19085
 Alpha virt. eigenvalues --    1.19172   1.25040   1.25737   1.27611   1.28816
 Alpha virt. eigenvalues --    1.30237   1.30593   1.30943   1.32251   1.33641
 Alpha virt. eigenvalues --    1.36752   1.37134   1.37672   1.37925   1.38924
 Alpha virt. eigenvalues --    1.40488   1.41424   1.45855   1.48332   1.51604
 Alpha virt. eigenvalues --    1.51955   1.52969   1.53157   1.53675   1.55852
 Alpha virt. eigenvalues --    1.58291   1.58570   1.58937   1.60827   1.65489
 Alpha virt. eigenvalues --    1.66630   1.68255   1.73468   1.74338   1.76710
 Alpha virt. eigenvalues --    1.78582   1.80908   1.83339   1.93171   1.95651
 Alpha virt. eigenvalues --    2.50308   2.52271   2.55932   2.57107   2.63597
 Alpha virt. eigenvalues --    2.67153   2.69042   2.69185   2.70673   2.71222
 Alpha virt. eigenvalues --    2.76497   2.81240   2.82998   2.85026   2.87987
 Alpha virt. eigenvalues --    2.88746   2.91266   2.94015   2.95654   2.95879
 Alpha virt. eigenvalues --    3.02771   3.03868   3.06619   3.09341   3.09788
 Alpha virt. eigenvalues --    3.11050   3.11805   3.12464   3.13449   3.15100
 Alpha virt. eigenvalues --    3.16743   3.18082   3.18382   3.22125   3.23610
 Alpha virt. eigenvalues --    3.24662   3.28448   3.28639   3.31571   3.31586
 Alpha virt. eigenvalues --    3.33472   3.34379   3.35573   3.37960   3.40827
 Alpha virt. eigenvalues --    3.41674   3.42262   3.43228   3.44566   3.47943
 Alpha virt. eigenvalues --    3.49774   3.52452   3.53782   3.55037   3.58858
 Alpha virt. eigenvalues --    3.59891   3.60586   3.62035   3.63610   3.65167
 Alpha virt. eigenvalues --    3.65976   3.66043   3.71870   3.76162   3.76627
 Alpha virt. eigenvalues --    3.78307   3.78428   3.79506   3.82709   3.83066
 Alpha virt. eigenvalues --    3.83757   3.87445   3.89546   3.92010   3.99209
 Alpha virt. eigenvalues --    4.00766   4.02358   4.03710   4.08556   4.09317
 Alpha virt. eigenvalues --    4.11125   4.11769   4.13711   4.15588   4.16249
 Alpha virt. eigenvalues --    4.18823   4.19381   4.20768   4.21529   4.22959
 Alpha virt. eigenvalues --    4.25552   4.31386   4.34288   4.34404   4.35573
 Alpha virt. eigenvalues --    4.35915   4.41991   4.42071   4.42390   4.43091
 Alpha virt. eigenvalues --    4.43175   4.43403   4.44920   4.45995   4.47289
 Alpha virt. eigenvalues --    4.49805   4.51043   4.51177   4.55329   4.58702
 Alpha virt. eigenvalues --    4.59837   4.60505   4.60621   4.64832   4.68056
 Alpha virt. eigenvalues --    4.69194   4.69523   4.70936   4.70990   4.77350
 Alpha virt. eigenvalues --    4.79632   4.86007   4.94348   4.99637   4.99674
 Alpha virt. eigenvalues --    5.04348   5.05202   5.05490   5.11408   5.16775
 Alpha virt. eigenvalues --    5.16939   5.16996   5.17873   5.19540   5.23853
 Alpha virt. eigenvalues --    5.24815   5.24868   5.27492   5.32718   5.33606
 Alpha virt. eigenvalues --    5.34574   5.44415   5.47460   5.54632   5.55429
 Alpha virt. eigenvalues --    5.56536   5.58605   5.61849   5.66602   5.67369
 Alpha virt. eigenvalues --    5.70541   5.70621   5.72419   5.73879   5.74981
 Alpha virt. eigenvalues --    5.76921   5.79641   5.80744   5.85717   5.86954
 Alpha virt. eigenvalues --    6.28834   6.29158   6.30115   6.30620   6.33505
 Alpha virt. eigenvalues --    6.36838  10.92202  10.94638  11.20649  11.24263
 Alpha virt. eigenvalues --   11.69047  12.23703  12.33375  13.78000  13.80824
 Alpha virt. eigenvalues --   16.24031  16.24046  16.26410  16.26811  16.33179
 Alpha virt. eigenvalues --   16.33589  16.47119  16.92607  16.92607  16.93295
 Alpha virt. eigenvalues --   16.93296  16.93854  16.93887  16.94591  16.94606
 Alpha virt. eigenvalues --   16.95668
  Beta  occ. eigenvalues -- -353.29735 -44.36066 -38.92536 -38.92524 -38.92111
  Beta  occ. eigenvalues --  -11.20919 -11.20919 -11.18637 -11.18636  -5.63575
  Beta  occ. eigenvalues --   -3.84001  -3.83979  -3.83647  -0.99493  -0.99015
  Beta  occ. eigenvalues --   -0.83246  -0.80837  -0.78667  -0.78653  -0.78314
  Beta  occ. eigenvalues --   -0.78209  -0.75093  -0.58090  -0.57663  -0.55782
  Beta  occ. eigenvalues --   -0.55603  -0.49037  -0.48726  -0.47206  -0.46832
  Beta  occ. eigenvalues --   -0.39970  -0.33929
  Beta virt. eigenvalues --    0.07877   0.08077   0.08289   0.14864   0.18201
  Beta virt. eigenvalues --    0.20423   0.20906   0.21064   0.21509   0.22077
  Beta virt. eigenvalues --    0.23715   0.25169   0.26164   0.27076   0.29497
  Beta virt. eigenvalues --    0.32117   0.33653   0.35638   0.37263   0.39986
  Beta virt. eigenvalues --    0.40299   0.41428   0.41823   0.43365   0.44459
  Beta virt. eigenvalues --    0.48100   0.51292   0.57095   0.58680   0.61431
  Beta virt. eigenvalues --    0.61797   0.62238   0.62684   0.64525   0.64589
  Beta virt. eigenvalues --    0.65508   0.66937   0.67113   0.68586   0.68768
  Beta virt. eigenvalues --    0.69373   0.69786   0.72950   0.73407   0.75752
  Beta virt. eigenvalues --    0.77233   0.78210   0.81849   0.82509   0.88728
  Beta virt. eigenvalues --    0.91160   0.93598   0.96878   0.97675   0.98596
  Beta virt. eigenvalues --    1.00968   1.05179   1.08240   1.08477   1.09514
  Beta virt. eigenvalues --    1.11115   1.13039   1.16631   1.18355   1.19085
  Beta virt. eigenvalues --    1.19172   1.25040   1.25737   1.27611   1.28816
  Beta virt. eigenvalues --    1.30237   1.30593   1.30943   1.32251   1.33641
  Beta virt. eigenvalues --    1.36752   1.37134   1.37672   1.37925   1.38924
  Beta virt. eigenvalues --    1.40488   1.41424   1.45855   1.48332   1.51604
  Beta virt. eigenvalues --    1.51955   1.52969   1.53157   1.53675   1.55852
  Beta virt. eigenvalues --    1.58291   1.58570   1.58936   1.60827   1.65489
  Beta virt. eigenvalues --    1.66630   1.68255   1.73468   1.74338   1.76710
  Beta virt. eigenvalues --    1.78582   1.80908   1.83339   1.93171   1.95651
  Beta virt. eigenvalues --    2.50308   2.52271   2.55932   2.57107   2.63597
  Beta virt. eigenvalues --    2.67153   2.69042   2.69185   2.70673   2.71222
  Beta virt. eigenvalues --    2.76497   2.81240   2.82998   2.85026   2.87987
  Beta virt. eigenvalues --    2.88746   2.91266   2.94015   2.95654   2.95879
  Beta virt. eigenvalues --    3.02771   3.03868   3.06619   3.09341   3.09788
  Beta virt. eigenvalues --    3.11050   3.11805   3.12464   3.13449   3.15100
  Beta virt. eigenvalues --    3.16743   3.18082   3.18382   3.22125   3.23610
  Beta virt. eigenvalues --    3.24662   3.28448   3.28639   3.31571   3.31586
  Beta virt. eigenvalues --    3.33472   3.34379   3.35573   3.37960   3.40827
  Beta virt. eigenvalues --    3.41674   3.42262   3.43228   3.44566   3.47943
  Beta virt. eigenvalues --    3.49774   3.52452   3.53782   3.55037   3.58858
  Beta virt. eigenvalues --    3.59891   3.60586   3.62035   3.63610   3.65167
  Beta virt. eigenvalues --    3.65976   3.66043   3.71870   3.76162   3.76627
  Beta virt. eigenvalues --    3.78307   3.78428   3.79506   3.82709   3.83066
  Beta virt. eigenvalues --    3.83757   3.87445   3.89546   3.92010   3.99209
  Beta virt. eigenvalues --    4.00766   4.02358   4.03710   4.08556   4.09317
  Beta virt. eigenvalues --    4.11125   4.11769   4.13711   4.15588   4.16249
  Beta virt. eigenvalues --    4.18823   4.19381   4.20768   4.21529   4.22959
  Beta virt. eigenvalues --    4.25552   4.31386   4.34288   4.34404   4.35573
  Beta virt. eigenvalues --    4.35915   4.41991   4.42071   4.42390   4.43091
  Beta virt. eigenvalues --    4.43175   4.43403   4.44920   4.45995   4.47289
  Beta virt. eigenvalues --    4.49805   4.51043   4.51177   4.55329   4.58702
  Beta virt. eigenvalues --    4.59837   4.60505   4.60621   4.64832   4.68056
  Beta virt. eigenvalues --    4.69194   4.69523   4.70936   4.70990   4.77350
  Beta virt. eigenvalues --    4.79632   4.86007   4.94348   4.99637   4.99674
  Beta virt. eigenvalues --    5.04348   5.05202   5.05490   5.11408   5.16775
  Beta virt. eigenvalues --    5.16939   5.16996   5.17873   5.19540   5.23853
  Beta virt. eigenvalues --    5.24815   5.24868   5.27492   5.32718   5.33606
  Beta virt. eigenvalues --    5.34574   5.44415   5.47460   5.54632   5.55429
  Beta virt. eigenvalues --    5.56536   5.58605   5.61849   5.66602   5.67369
  Beta virt. eigenvalues --    5.70541   5.70621   5.72419   5.73879   5.74981
  Beta virt. eigenvalues --    5.76921   5.79641   5.80744   5.85717   5.86954
  Beta virt. eigenvalues --    6.28834   6.29158   6.30115   6.30620   6.33505
  Beta virt. eigenvalues --    6.36838  10.92202  10.94638  11.20649  11.24263
  Beta virt. eigenvalues --   11.69047  12.23703  12.33375  13.78000  13.80824
  Beta virt. eigenvalues --   16.24031  16.24046  16.26410  16.26811  16.33179
  Beta virt. eigenvalues --   16.33589  16.47119  16.92607  16.92607  16.93295
  Beta virt. eigenvalues --   16.93296  16.93854  16.93887  16.94591  16.94606
  Beta virt. eigenvalues --   16.95668
          Condensed to atoms (all electrons):
               1          2          3          4          5          6
     1  Zn  28.656158   0.355754  -0.036014  -0.023694  -0.022991   0.011226
     2  C    0.355754   5.221084   0.307302   0.406713   0.407217  -0.040206
     3  C   -0.036014   0.307302   4.830467  -0.038669  -0.038694   0.421813
     4  H   -0.023694   0.406713  -0.038669   0.612372  -0.036443  -0.009298
     5  H   -0.022991   0.407217  -0.038694  -0.036443   0.610383  -0.009303
     6  H    0.011226  -0.040206   0.421813  -0.009298  -0.009303   0.602451
     7  H   -0.006019  -0.039446   0.418089  -0.003550   0.007538  -0.037282
     8  H   -0.006104  -0.039858   0.417928   0.007638  -0.003550  -0.037195
     9  C    0.355754  -0.031454   0.001173   0.000993   0.000911  -0.000087
    10  C   -0.036014   0.001173  -0.000037  -0.000046  -0.000085   0.000001
    11  H   -0.023694   0.000993  -0.000046  -0.000099   0.000019   0.000003
    12  H   -0.022991   0.000911  -0.000085   0.000019  -0.000034   0.000006
    13  H    0.011226  -0.000087   0.000001   0.000003   0.000006   0.000000
    14  H   -0.006019   0.000217  -0.000004   0.000007  -0.000015   0.000000
    15  H   -0.006104   0.000239  -0.000003  -0.000013   0.000011   0.000000
               7          8          9         10         11         12
     1  Zn  -0.006019  -0.006104   0.355754  -0.036014  -0.023694  -0.022991
     2  C   -0.039446  -0.039858  -0.031454   0.001173   0.000993   0.000911
     3  C    0.418089   0.417928   0.001173  -0.000037  -0.000046  -0.000085
     4  H   -0.003550   0.007638   0.000993  -0.000046  -0.000099   0.000019
     5  H    0.007538  -0.003550   0.000911  -0.000085   0.000019  -0.000034
     6  H   -0.037282  -0.037195  -0.000087   0.000001   0.000003   0.000006
     7  H    0.614652  -0.037721   0.000217  -0.000004   0.000007  -0.000015
     8  H   -0.037721   0.615120   0.000239  -0.000003  -0.000013   0.000011
     9  C    0.000217   0.000239   5.221084   0.307302   0.406713   0.407217
    10  C   -0.000004  -0.000003   0.307302   4.830467  -0.038669  -0.038694
    11  H    0.000007  -0.000013   0.406713  -0.038669   0.612372  -0.036443
    12  H   -0.000015   0.000011   0.407217  -0.038694  -0.036443   0.610383
    13  H    0.000000   0.000000  -0.040206   0.421813  -0.009298  -0.009303
    14  H    0.000000   0.000000  -0.039446   0.418089  -0.003550   0.007538
    15  H    0.000000  -0.000003  -0.039858   0.417928   0.007638  -0.003550
              13         14         15
     1  Zn   0.011226  -0.006019  -0.006104
     2  C   -0.000087   0.000217   0.000239
     3  C    0.000001  -0.000004  -0.000003
     4  H    0.000003   0.000007  -0.000013
     5  H    0.000006  -0.000015   0.000011
     6  H    0.000000   0.000000   0.000000
     7  H    0.000000   0.000000   0.000000
     8  H    0.000000   0.000000  -0.000003
     9  C   -0.040206  -0.039446  -0.039858
    10  C    0.421813   0.418089   0.417928
    11  H   -0.009298  -0.003550   0.007638
    12  H   -0.009303   0.007538  -0.003550
    13  H    0.602451  -0.037282  -0.037195
    14  H   -0.037282   0.614652  -0.037721
    15  H   -0.037195  -0.037721   0.615120
          Atomic-Atomic Spin Densities.
               1          2          3          4          5          6
     1  Zn   0.000000   0.000000   0.000000   0.000000   0.000000   0.000000
     2  C    0.000000  -0.000001   0.000000   0.000000   0.000000   0.000000
     3  C    0.000000   0.000000  -0.000002   0.000000   0.000000   0.000000
     4  H    0.000000   0.000000   0.000000   0.000001   0.000000   0.000000
     5  H    0.000000   0.000000   0.000000   0.000000   0.000001   0.000000
     6  H    0.000000   0.000000   0.000000   0.000000   0.000000   0.000001
     7  H    0.000000   0.000000   0.000000   0.000000   0.000000   0.000000
     8  H    0.000000   0.000000   0.000000   0.000000   0.000000   0.000000
     9  C    0.000000   0.000000   0.000000   0.000000   0.000000   0.000000
    10  C    0.000000   0.000000   0.000000   0.000000   0.000000   0.000000
    11  H    0.000000   0.000000   0.000000   0.000000   0.000000   0.000000
    12  H    0.000000   0.000000   0.000000   0.000000   0.000000   0.000000
    13  H    0.000000   0.000000   0.000000   0.000000   0.000000   0.000000
    14  H    0.000000   0.000000   0.000000   0.000000   0.000000   0.000000
    15  H    0.000000   0.000000   0.000000   0.000000   0.000000   0.000000
               7          8          9         10         11         12
     1  Zn   0.000000   0.000000   0.000000   0.000000   0.000000   0.000000
     2  C    0.000000   0.000000   0.000000   0.000000   0.000000   0.000000
     3  C    0.000000   0.000000   0.000000   0.000000   0.000000   0.000000
     4  H    0.000000   0.000000   0.000000   0.000000   0.000000   0.000000
     5  H    0.000000   0.000000   0.000000   0.000000   0.000000   0.000000
     6  H    0.000000   0.000000   0.000000   0.000000   0.000000   0.000000
     7  H    0.000001   0.000000   0.000000   0.000000   0.000000   0.000000
     8  H    0.000000   0.000001   0.000000   0.000000   0.000000   0.000000
     9  C    0.000000   0.000000  -0.000001   0.000000   0.000000   0.000000
    10  C    0.000000   0.000000   0.000000  -0.000002   0.000000   0.000000
    11  H    0.000000   0.000000   0.000000   0.000000   0.000001   0.000000
    12  H    0.000000   0.000000   0.000000   0.000000   0.000000   0.000001
    13  H    0.000000   0.000000   0.000000   0.000000   0.000000   0.000000
    14  H    0.000000   0.000000   0.000000   0.000000   0.000000   0.000000
    15  H    0.000000   0.000000   0.000000   0.000000   0.000000   0.000000
              13         14         15
     1  Zn   0.000000   0.000000   0.000000
     2  C    0.000000   0.000000   0.000000
     3  C    0.000000   0.000000   0.000000
     4  H    0.000000   0.000000   0.000000
     5  H    0.000000   0.000000   0.000000
     6  H    0.000000   0.000000   0.000000
     7  H    0.000000   0.000000   0.000000
     8  H    0.000000   0.000000   0.000000
     9  C    0.000000   0.000000   0.000000
    10  C    0.000000   0.000000   0.000000
    11  H    0.000000   0.000000   0.000000
    12  H    0.000000   0.000000   0.000000
    13  H    0.000001   0.000000   0.000000
    14  H    0.000000   0.000001   0.000000
    15  H    0.000000   0.000000   0.000001
 Mulliken charges and spin densities:
               1          2
     1  Zn   0.799527   0.000000
     2  C   -0.550554  -0.000001
     3  C   -0.283221  -0.000002
     4  H    0.084069   0.000000
     5  H    0.085030   0.000000
     6  H    0.097869   0.000001
     7  H    0.083534   0.000000
     8  H    0.083509   0.000000
     9  C   -0.550554  -0.000001
    10  C   -0.283221  -0.000002
    11  H    0.084069   0.000000
    12  H    0.085030   0.000000
    13  H    0.097869   0.000001
    14  H    0.083534   0.000000
    15  H    0.083509   0.000000
 Sum of Mulliken charges =   0.00000   0.00000
 Mulliken charges and spin densities with hydrogens summed into heavy atoms:
               1          2
     1  Zn   0.799527   0.000000
     2  C   -0.381455   0.000000
     3  C   -0.018308   0.000000
     9  C   -0.381455   0.000000
    10  C   -0.018308   0.000000
 Electronic spatial extent (au):  <R**2>=            968.2959
 Charge=              0.0000 electrons
 Dipole moment (field-independent basis, Debye):
    X=              0.0000    Y=              0.0000    Z=              0.0734  Tot=              0.0734
 Quadrupole moment (field-independent basis, Debye-Ang):
   XX=            -42.5650   YY=            -49.7939   ZZ=            -40.9558
   XY=             -1.1688   XZ=              0.0000   YZ=              0.0000
 Traceless Quadrupole moment (field-independent basis, Debye-Ang):
   XX=              1.8732   YY=             -5.3556   ZZ=              3.4824
   XY=             -1.1688   XZ=              0.0000   YZ=              0.0000
 Octapole moment (field-independent basis, Debye-Ang**2):
  XXX=              0.0000  YYY=              0.0000  ZZZ=              3.6119  XYY=              0.0000
  XXY=              0.0000  XXZ=              2.0398  XZZ=              0.0000  YZZ=              0.0000
  YYZ=              1.4148  XYZ=              1.0934
 Hexadecapole moment (field-independent basis, Debye-Ang**3):
 XXXX=           -267.6927 YYYY=          -1085.8741 ZZZZ=            -78.0987 XXXY=           -175.6363
 XXXZ=              0.0000 YYYX=           -177.7818 YYYZ=              0.0000 ZZZX=              0.0000
 ZZZY=              0.0000 XXYY=           -234.4106 XXZZ=            -54.9516 YYZZ=           -190.5378
 XXYZ=              0.0000 YYXZ=              0.0000 ZZXY=            -56.1666
 N-N= 3.207392817687D+02 E-N=-5.269258838773D+03  KE= 1.935099961090D+03
 Symmetry A    KE= 1.416975838242D+03
 Symmetry B    KE= 5.181241228477D+02
                          Isotropic Fermi Contact Couplings
        Atom                 a.u.       MegaHertz       Gauss      10(-4) cm-1
     1  Zn(67)             0.00000       0.00017       0.00006       0.00006
     2  C(13)              0.00000      -0.00003      -0.00001      -0.00001
     3  C(13)              0.00000      -0.00046      -0.00016      -0.00015
     4  H(1)               0.00000       0.00020       0.00007       0.00007
     5  H(1)               0.00000       0.00020       0.00007       0.00007
     6  H(1)               0.00000       0.00035       0.00012       0.00012
     7  H(1)               0.00000       0.00030       0.00011       0.00010
     8  H(1)               0.00000       0.00030       0.00011       0.00010
     9  C(13)              0.00000      -0.00003      -0.00001      -0.00001
    10  C(13)              0.00000      -0.00046      -0.00016      -0.00015
    11  H(1)               0.00000       0.00020       0.00007       0.00007
    12  H(1)               0.00000       0.00020       0.00007       0.00007
    13  H(1)               0.00000       0.00035       0.00012       0.00012
    14  H(1)               0.00000       0.00030       0.00011       0.00010
    15  H(1)               0.00000       0.00030       0.00011       0.00010
 --------------------------------------------------------
       Center         ----  Spin Dipole Couplings  ----
                      3XX-RR        3YY-RR        3ZZ-RR
 --------------------------------------------------------
     1   Atom        0.000000      0.000000      0.000000
     2   Atom        0.000000      0.000000      0.000000
     3   Atom        0.000000      0.000000      0.000000
     4   Atom        0.000000      0.000000      0.000000
     5   Atom        0.000000      0.000000      0.000000
     6   Atom        0.000000      0.000000      0.000000
     7   Atom        0.000000      0.000000      0.000000
     8   Atom        0.000000      0.000000      0.000000
     9   Atom        0.000000      0.000000      0.000000
    10   Atom        0.000000      0.000000      0.000000
    11   Atom        0.000000      0.000000      0.000000
    12   Atom        0.000000      0.000000      0.000000
    13   Atom        0.000000      0.000000      0.000000
    14   Atom        0.000000      0.000000      0.000000
    15   Atom        0.000000      0.000000      0.000000
 --------------------------------------------------------
                        XY            XZ            YZ
 --------------------------------------------------------
     1   Atom        0.000000      0.000000      0.000000
     2   Atom        0.000000      0.000000      0.000000
     3   Atom        0.000000      0.000000      0.000000
     4   Atom        0.000000      0.000000      0.000000
     5   Atom        0.000000      0.000000      0.000000
     6   Atom        0.000000      0.000000      0.000000
     7   Atom        0.000000      0.000000      0.000000
     8   Atom        0.000000      0.000000      0.000000
     9   Atom        0.000000      0.000000      0.000000
    10   Atom        0.000000      0.000000      0.000000
    11   Atom        0.000000      0.000000      0.000000
    12   Atom        0.000000      0.000000      0.000000
    13   Atom        0.000000      0.000000      0.000000
    14   Atom        0.000000      0.000000      0.000000
    15   Atom        0.000000      0.000000      0.000000
 --------------------------------------------------------


 ---------------------------------------------------------------------------------
              Anisotropic Spin Dipole Couplings in Principal Axis System
 ---------------------------------------------------------------------------------

       Atom             a.u.   MegaHertz   Gauss  10(-4) cm-1        Axes

              Baa     0.0000     0.000     0.000     0.000  0.0000  0.0000  1.0000
     1 Zn(67) Bbb     0.0000     0.000     0.000     0.000  0.9992  0.0407  0.0000
              Bcc     0.0000     0.000     0.000     0.000 -0.0407  0.9992  0.0000
 
              Baa     0.0000     0.000     0.000     0.000  0.2532 -0.0238  0.9671
     2 C(13)  Bbb     0.0000     0.000     0.000     0.000 -0.6597  0.7269  0.1906
              Bcc     0.0000     0.000     0.000     0.000  0.7076  0.6863 -0.1684
 
              Baa     0.0000     0.000     0.000     0.000 -0.4559  0.8835  0.1080
     3 C(13)  Bbb     0.0000     0.000     0.000     0.000  0.2322  0.0010  0.9727
              Bcc     0.0000     0.000     0.000     0.000  0.8592  0.4685 -0.2056
 
              Baa     0.0000     0.000     0.000     0.000 -0.3306  0.2152  0.9189
     4 H(1)   Bbb     0.0000     0.000     0.000     0.000 -0.4680  0.8081 -0.3577
              Bcc     0.0000     0.000     0.000     0.000  0.8195  0.5483  0.1665
 
              Baa     0.0000     0.000     0.000     0.000  0.7096 -0.2142  0.6712
     5 H(1)   Bbb     0.0000     0.000     0.000     0.000 -0.2500  0.8141  0.5241
              Bcc     0.0000     0.000     0.000     0.000  0.6587  0.5397 -0.5242
 
              Baa     0.0000     0.000     0.000     0.000  0.0181  0.9998 -0.0053
     6 H(1)   Bbb     0.0000     0.000     0.000     0.000  0.2325  0.0009  0.9726
              Bcc     0.0000     0.000     0.000     0.000  0.9724 -0.0188 -0.2325
 
              Baa     0.0000     0.000     0.000     0.000  0.7274 -0.2412  0.6424
     7 H(1)   Bbb     0.0000     0.000     0.000     0.000 -0.2050  0.8170  0.5389
              Bcc     0.0000     0.000     0.000     0.000  0.6549  0.5237 -0.5449
 
              Baa     0.0000     0.000     0.000     0.000 -0.3612  0.2433  0.9002
     8 H(1)   Bbb     0.0000     0.000     0.000     0.000 -0.4234  0.8173 -0.3907
              Bcc     0.0000     0.000     0.000     0.000  0.8308  0.5223  0.1922
 
              Baa     0.0000     0.000     0.000     0.000 -0.2532  0.0238  0.9671
     9 C(13)  Bbb     0.0000     0.000     0.000     0.000 -0.6597  0.7269 -0.1906
              Bcc     0.0000     0.000     0.000     0.000  0.7076  0.6863  0.1684
 
              Baa     0.0000     0.000     0.000     0.000 -0.4559  0.8835 -0.1080
    10 C(13)  Bbb     0.0000     0.000     0.000     0.000 -0.2322 -0.0010  0.9727
              Bcc     0.0000     0.000     0.000     0.000  0.8592  0.4685  0.2056
 
              Baa     0.0000     0.000     0.000     0.000  0.3306 -0.2152  0.9189
    11 H(1)   Bbb     0.0000     0.000     0.000     0.000 -0.4680  0.8081  0.3577
              Bcc     0.0000     0.000     0.000     0.000  0.8195  0.5483 -0.1665
 
              Baa     0.0000     0.000     0.000     0.000  0.7096 -0.2142 -0.6712
    12 H(1)   Bbb     0.0000     0.000     0.000     0.000 -0.2500  0.8141 -0.5241
              Bcc     0.0000     0.000     0.000     0.000  0.6587  0.5397  0.5242
 
              Baa     0.0000     0.000     0.000     0.000  0.0181  0.9998  0.0053
    13 H(1)   Bbb     0.0000     0.000     0.000     0.000 -0.2325 -0.0009  0.9726
              Bcc     0.0000     0.000     0.000     0.000  0.9724 -0.0188  0.2325
 
              Baa     0.0000     0.000     0.000     0.000  0.7274 -0.2412 -0.6424
    14 H(1)   Bbb     0.0000     0.000     0.000     0.000 -0.2050  0.8170 -0.5389
              Bcc     0.0000     0.000     0.000     0.000  0.6549  0.5237  0.5449
 
              Baa     0.0000     0.000     0.000     0.000  0.3612 -0.2433  0.9002
    15 H(1)   Bbb     0.0000     0.000     0.000     0.000 -0.4234  0.8173  0.3907
              Bcc     0.0000     0.000     0.000     0.000  0.8308  0.5223 -0.1922
 

 ---------------------------------------------------------------------------------

 Range of M.O.s used for correlation:     1   328
 NBasis=   328 NAE=    32 NBE=    32 NFC=     0 NFV=     0
 NROrb=    328 NOA=    32 NOB=    32 NVA=   296 NVB=   296

 **** Warning!!: The largest alpha MO coefficient is  0.11019524D+02


 **** Warning!!: The largest beta MO coefficient is  0.11019524D+02

 Keep R1 and R2 ints in memory in symmetry-blocked form, NReq=2183654072.
 Orbital symmetries:
 Alpha Orbitals:
       Occupied  (A) (A) (B) (A) (B) (A) (B) (B) (A) (A) (B) (A)
                 (B) (A) (B) (A) (B) (B) (A) (B) (A) (A) (A) (B)
                 (A) (B) (B) (A) (A) (B) (A) (B)
       Virtual   (A) (B) (A) (B) (A) (A) (B) (A) (B) (B) (B) (A)
                 (A) (A) (B) (A) (B) (A) (B) (A) (B) (B) (A) (A)
                 (B) (B) (A) (B) (A) (B) (A) (A) (B) (A) (B) (B)
                 (B) (A) (A) (B) (A) (B) (A) (A) (B) (A) (B) (B)
                 (A) (B) (A) (A) (A) (B) (B) (A) (B) (B) (A) (B)
                 (A) (B) (A) (B) (B) (A) (B) (A) (A) (B) (A) (B)
                 (B) (A) (A) (A) (B) (A) (B) (B) (B) (A) (A) (A)
                 (A) (B) (A) (B) (B) (A) (A) (B) (B) (A) (A) (B)
                 (B) (A) (A) (B) (B) (A) (B) (A) (B) (B) (A) (B)
                 (A) (A) (B) (B) (A) (A) (B) (A) (B) (B) (A) (A)
                 (B) (B) (A) (A) (B) (A) (B) (A) (B) (A) (B) (A)
                 (B) (B) (A) (A) (B) (A) (A) (B) (B) (A) (B) (B)
                 (A) (B) (A) (B) (A) (B) (A) (B) (A) (A) (B) (B)
                 (A) (B) (A) (A) (A) (B) (B) (B) (A) (A) (B) (A)
                 (B) (A) (B) (A) (A) (A) (B) (B) (B) (A) (B) (A)
                 (B) (B) (A) (A) (B) (A) (B) (B) (B) (A) (A) (A)
                 (B) (A) (B) (A) (A) (B) (B) (B) (A) (A) (B) (A)
                 (A) (B) (B) (A) (A) (B) (B) (A) (B) (A) (B) (A)
                 (A) (B) (A) (B) (A) (B) (A) (B) (A) (B) (B) (A)
                 (B) (A) (B) (B) (A) (A) (A) (A) (B) (B) (B) (A)
                 (A) (B) (B) (B) (A) (A) (B) (A) (A) (B) (B) (A)
                 (B) (B) (A) (B) (A) (A) (B) (B) (A) (A) (B) (A)
                 (B) (A) (B) (A) (B) (B) (A) (B) (A) (B) (A) (A)
                 (A) (B) (B) (A) (A) (B) (B) (A) (A) (B) (B) (A)
                 (B) (B) (A) (A) (B) (A) (B) (A)
 Beta  Orbitals:
       Occupied  (A) (A) (B) (A) (B) (A) (B) (B) (A) (A) (B) (A)
                 (B) (A) (B) (A) (B) (B) (A) (B) (A) (A) (A) (B)
                 (A) (B) (B) (A) (A) (B) (A) (B)
       Virtual   (A) (B) (A) (B) (A) (A) (B) (A) (B) (B) (B) (A)
                 (A) (A) (B) (A) (B) (A) (B) (A) (B) (B) (A) (A)
                 (B) (B) (A) (B) (A) (B) (A) (A) (B) (A) (B) (B)
                 (B) (A) (A) (B) (A) (B) (A) (A) (B) (A) (B) (B)
                 (A) (B) (A) (A) (A) (B) (B) (A) (B) (B) (A) (B)
                 (A) (B) (A) (B) (B) (A) (B) (A) (A) (B) (A) (B)
                 (B) (A) (A) (A) (B) (A) (B) (B) (B) (A) (A) (A)
                 (A) (B) (A) (B) (B) (A) (A) (B) (B) (A) (A) (B)
                 (B) (A) (A) (B) (B) (A) (B) (A) (B) (B) (A) (B)
                 (A) (A) (B) (B) (A) (A) (B) (A) (B) (B) (A) (A)
                 (B) (B) (A) (A) (B) (A) (B) (A) (B) (A) (B) (A)
                 (B) (B) (A) (A) (B) (A) (A) (B) (B) (A) (B) (B)
                 (A) (B) (A) (B) (A) (B) (A) (B) (A) (A) (B) (B)
                 (A) (B) (A) (A) (A) (B) (B) (B) (A) (A) (B) (A)
                 (B) (A) (B) (A) (A) (A) (B) (B) (B) (A) (B) (A)
                 (B) (B) (A) (A) (B) (A) (B) (B) (B) (A) (A) (A)
                 (B) (A) (B) (A) (A) (B) (B) (B) (A) (A) (B) (A)
                 (A) (B) (B) (A) (A) (B) (B) (A) (B) (A) (B) (A)
                 (A) (B) (A) (B) (A) (B) (A) (B) (A) (B) (B) (A)
                 (B) (A) (B) (B) (A) (A) (A) (A) (B) (B) (B) (A)
                 (A) (B) (B) (B) (A) (A) (B) (A) (A) (B) (B) (A)
                 (B) (B) (A) (B) (A) (A) (B) (B) (A) (A) (B) (A)
                 (B) (A) (B) (A) (B) (B) (A) (B) (A) (B) (A) (A)
                 (A) (B) (B) (A) (A) (B) (B) (A) (A) (B) (B) (A)
                 (B) (B) (A) (A) (B) (A) (B) (A)
    12 initial guesses have been made.
 Convergence on wavefunction:    0.001000000000000
 Iteration     1 Dimension    12 NMult     0 NNew     12
 CISAX will form    12 AO SS matrices at one time.
 New state      1 was old state      5
 Iteration     2 Dimension    24 NMult    12 NNew     12
 Iteration     3 Dimension    27 NMult    24 NNew      3
 Iteration     4 Dimension    30 NMult    27 NNew      3
 Iteration     5 Dimension    33 NMult    30 NNew      3
 Iteration     6 Dimension    36 NMult    33 NNew      3
 Iteration     7 Dimension    39 NMult    36 NNew      3
 ***********************************************************************
 Stability analysis using <AA,BB:AA,BB> singles matrix:
 ***********************************************************************

 Eigenvectors of the stability matrix:
 
 Eigenvector   1:  3.000-B    Eigenvalue= 0.1476813  <S**2>=2.000
     32A -> 33A        0.50720
     32A -> 44A       -0.19346
     32A -> 45A       -0.14993
     32A -> 46A       -0.27539
     32A -> 50A        0.10082
     32B -> 33B       -0.50720
     32B -> 44B        0.19346
     32B -> 45B        0.14993
     32B -> 46B        0.27539
     32B -> 50B       -0.10082
 SavETr:  write IOETrn=   770 NScale= 10 NData=  16 NLR=1 NState=    1 LETran=      28.
 The wavefunction is stable under the perturbations considered.
 The wavefunction is already stable.

 **********************************************************************

            Population analysis using the SCF density.

 **********************************************************************

 Orbital symmetries:
 Alpha Orbitals:
       Occupied  (A) (A) (B) (A) (B) (A) (B) (B) (A) (A) (B) (A)
                 (B) (A) (B) (A) (B) (B) (A) (B) (A) (A) (A) (B)
                 (A) (B) (B) (A) (A) (B) (A) (B)
       Virtual   (A) (B) (A) (B) (A) (A) (B) (A) (B) (B) (B) (A)
                 (A) (A) (B) (A) (B) (A) (B) (A) (B) (B) (A) (A)
                 (B) (B) (A) (B) (A) (B) (A) (A) (B) (A) (B) (B)
                 (B) (A) (A) (B) (A) (B) (A) (A) (B) (A) (B) (B)
                 (A) (B) (A) (A) (A) (B) (B) (A) (B) (B) (A) (B)
                 (A) (B) (A) (B) (B) (A) (B) (A) (A) (B) (A) (B)
                 (B) (A) (A) (A) (B) (A) (B) (B) (B) (A) (A) (A)
                 (A) (B) (A) (B) (B) (A) (A) (B) (B) (A) (A) (B)
                 (B) (A) (A) (B) (B) (A) (B) (A) (B) (B) (A) (B)
                 (A) (A) (B) (B) (A) (A) (B) (A) (B) (B) (A) (A)
                 (B) (B) (A) (A) (B) (A) (B) (A) (B) (A) (B) (A)
                 (B) (B) (A) (A) (B) (A) (A) (B) (B) (A) (B) (B)
                 (A) (B) (A) (B) (A) (B) (A) (B) (A) (A) (B) (B)
                 (A) (B) (A) (A) (A) (B) (B) (B) (A) (A) (B) (A)
                 (B) (A) (B) (A) (A) (A) (B) (B) (B) (A) (B) (A)
                 (B) (B) (A) (A) (B) (A) (B) (B) (B) (A) (A) (A)
                 (B) (A) (B) (A) (A) (B) (B) (B) (A) (A) (B) (A)
                 (A) (B) (B) (A) (A) (B) (B) (A) (B) (A) (B) (A)
                 (A) (B) (A) (B) (A) (B) (A) (B) (A) (B) (B) (A)
                 (B) (A) (B) (B) (A) (A) (A) (A) (B) (B) (B) (A)
                 (A) (B) (B) (B) (A) (A) (B) (A) (A) (B) (B) (A)
                 (B) (B) (A) (B) (A) (A) (B) (B) (A) (A) (B) (A)
                 (B) (A) (B) (A) (B) (B) (A) (B) (A) (B) (A) (A)
                 (A) (B) (B) (A) (A) (B) (B) (A) (A) (B) (B) (A)
                 (B) (B) (A) (A) (B) (A) (B) (A)
 Beta  Orbitals:
       Occupied  (A) (A) (B) (A) (B) (A) (B) (B) (A) (A) (B) (A)
                 (B) (A) (B) (A) (B) (B) (A) (B) (A) (A) (A) (B)
                 (A) (B) (B) (A) (A) (B) (A) (B)
       Virtual   (A) (B) (A) (B) (A) (A) (B) (A) (B) (B) (B) (A)
                 (A) (A) (B) (A) (B) (A) (B) (A) (B) (B) (A) (A)
                 (B) (B) (A) (B) (A) (B) (A) (A) (B) (A) (B) (B)
                 (B) (A) (A) (B) (A) (B) (A) (A) (B) (A) (B) (B)
                 (A) (B) (A) (A) (A) (B) (B) (A) (B) (B) (A) (B)
                 (A) (B) (A) (B) (B) (A) (B) (A) (A) (B) (A) (B)
                 (B) (A) (A) (A) (B) (A) (B) (B) (B) (A) (A) (A)
                 (A) (B) (A) (B) (B) (A) (A) (B) (B) (A) (A) (B)
                 (B) (A) (A) (B) (B) (A) (B) (A) (B) (B) (A) (B)
                 (A) (A) (B) (B) (A) (A) (B) (A) (B) (B) (A) (A)
                 (B) (B) (A) (A) (B) (A) (B) (A) (B) (A) (B) (A)
                 (B) (B) (A) (A) (B) (A) (A) (B) (B) (A) (B) (B)
                 (A) (B) (A) (B) (A) (B) (A) (B) (A) (A) (B) (B)
                 (A) (B) (A) (A) (A) (B) (B) (B) (A) (A) (B) (A)
                 (B) (A) (B) (A) (A) (A) (B) (B) (B) (A) (B) (A)
                 (B) (B) (A) (A) (B) (A) (B) (B) (B) (A) (A) (A)
                 (B) (A) (B) (A) (A) (B) (B) (B) (A) (A) (B) (A)
                 (A) (B) (B) (A) (A) (B) (B) (A) (B) (A) (B) (A)
                 (A) (B) (A) (B) (A) (B) (A) (B) (A) (B) (B) (A)
                 (B) (A) (B) (B) (A) (A) (A) (A) (B) (B) (B) (A)
                 (A) (B) (B) (B) (A) (A) (B) (A) (A) (B) (B) (A)
                 (B) (B) (A) (B) (A) (A) (B) (B) (A) (A) (B) (A)
                 (B) (A) (B) (A) (B) (B) (A) (B) (A) (B) (A) (A)
                 (A) (B) (B) (A) (A) (B) (B) (A) (A) (B) (B) (A)
                 (B) (B) (A) (A) (B) (A) (B) (A)
 The electronic state is 1-A.
 Alpha  occ. eigenvalues -- -353.29735 -44.36066 -38.92536 -38.92524 -38.92111
 Alpha  occ. eigenvalues --  -11.20919 -11.20919 -11.18637 -11.18636  -5.63575
 Alpha  occ. eigenvalues --   -3.84001  -3.83979  -3.83647  -0.99493  -0.99015
 Alpha  occ. eigenvalues --   -0.83246  -0.80837  -0.78667  -0.78653  -0.78314
 Alpha  occ. eigenvalues --   -0.78209  -0.75093  -0.58090  -0.57663  -0.55782
 Alpha  occ. eigenvalues --   -0.55603  -0.49037  -0.48726  -0.47206  -0.46832
 Alpha  occ. eigenvalues --   -0.39970  -0.33929
 Alpha virt. eigenvalues --    0.07877   0.08077   0.08289   0.14864   0.18201
 Alpha virt. eigenvalues --    0.20423   0.20906   0.21064   0.21509   0.22077
 Alpha virt. eigenvalues --    0.23715   0.25169   0.26164   0.27076   0.29497
 Alpha virt. eigenvalues --    0.32117   0.33653   0.35638   0.37263   0.39986
 Alpha virt. eigenvalues --    0.40299   0.41428   0.41823   0.43365   0.44459
 Alpha virt. eigenvalues --    0.48100   0.51292   0.57095   0.58680   0.61431
 Alpha virt. eigenvalues --    0.61797   0.62238   0.62684   0.64525   0.64589
 Alpha virt. eigenvalues --    0.65508   0.66937   0.67113   0.68586   0.68768
 Alpha virt. eigenvalues --    0.69373   0.69786   0.72950   0.73407   0.75752
 Alpha virt. eigenvalues --    0.77233   0.78210   0.81849   0.82509   0.88728
 Alpha virt. eigenvalues --    0.91160   0.93598   0.96878   0.97675   0.98596
 Alpha virt. eigenvalues --    1.00968   1.05179   1.08240   1.08477   1.09514
 Alpha virt. eigenvalues --    1.11115   1.13039   1.16631   1.18355   1.19085
 Alpha virt. eigenvalues --    1.19172   1.25040   1.25737   1.27611   1.28816
 Alpha virt. eigenvalues --    1.30237   1.30593   1.30943   1.32251   1.33641
 Alpha virt. eigenvalues --    1.36752   1.37134   1.37672   1.37925   1.38924
 Alpha virt. eigenvalues --    1.40488   1.41424   1.45855   1.48332   1.51604
 Alpha virt. eigenvalues --    1.51955   1.52969   1.53157   1.53675   1.55852
 Alpha virt. eigenvalues --    1.58291   1.58570   1.58937   1.60827   1.65489
 Alpha virt. eigenvalues --    1.66630   1.68255   1.73468   1.74338   1.76710
 Alpha virt. eigenvalues --    1.78582   1.80908   1.83339   1.93171   1.95651
 Alpha virt. eigenvalues --    2.50308   2.52271   2.55932   2.57107   2.63597
 Alpha virt. eigenvalues --    2.67153   2.69042   2.69185   2.70673   2.71222
 Alpha virt. eigenvalues --    2.76497   2.81240   2.82998   2.85026   2.87987
 Alpha virt. eigenvalues --    2.88746   2.91266   2.94015   2.95654   2.95879
 Alpha virt. eigenvalues --    3.02771   3.03868   3.06619   3.09341   3.09788
 Alpha virt. eigenvalues --    3.11050   3.11805   3.12464   3.13449   3.15100
 Alpha virt. eigenvalues --    3.16743   3.18082   3.18382   3.22125   3.23610
 Alpha virt. eigenvalues --    3.24662   3.28448   3.28639   3.31571   3.31586
 Alpha virt. eigenvalues --    3.33472   3.34379   3.35573   3.37960   3.40827
 Alpha virt. eigenvalues --    3.41674   3.42262   3.43228   3.44566   3.47943
 Alpha virt. eigenvalues --    3.49774   3.52452   3.53782   3.55037   3.58858
 Alpha virt. eigenvalues --    3.59891   3.60586   3.62035   3.63610   3.65167
 Alpha virt. eigenvalues --    3.65976   3.66043   3.71870   3.76162   3.76627
 Alpha virt. eigenvalues --    3.78307   3.78428   3.79506   3.82709   3.83066
 Alpha virt. eigenvalues --    3.83757   3.87445   3.89546   3.92010   3.99209
 Alpha virt. eigenvalues --    4.00766   4.02358   4.03710   4.08556   4.09317
 Alpha virt. eigenvalues --    4.11125   4.11769   4.13711   4.15588   4.16249
 Alpha virt. eigenvalues --    4.18823   4.19381   4.20768   4.21529   4.22959
 Alpha virt. eigenvalues --    4.25552   4.31386   4.34288   4.34404   4.35573
 Alpha virt. eigenvalues --    4.35915   4.41991   4.42071   4.42390   4.43091
 Alpha virt. eigenvalues --    4.43175   4.43403   4.44920   4.45995   4.47289
 Alpha virt. eigenvalues --    4.49805   4.51043   4.51177   4.55329   4.58702
 Alpha virt. eigenvalues --    4.59837   4.60505   4.60621   4.64832   4.68056
 Alpha virt. eigenvalues --    4.69194   4.69523   4.70936   4.70990   4.77350
 Alpha virt. eigenvalues --    4.79632   4.86007   4.94348   4.99637   4.99674
 Alpha virt. eigenvalues --    5.04348   5.05202   5.05490   5.11408   5.16775
 Alpha virt. eigenvalues --    5.16939   5.16996   5.17873   5.19540   5.23853
 Alpha virt. eigenvalues --    5.24815   5.24868   5.27492   5.32718   5.33606
 Alpha virt. eigenvalues --    5.34574   5.44415   5.47460   5.54632   5.55429
 Alpha virt. eigenvalues --    5.56536   5.58605   5.61849   5.66602   5.67369
 Alpha virt. eigenvalues --    5.70541   5.70621   5.72419   5.73879   5.74981
 Alpha virt. eigenvalues --    5.76921   5.79641   5.80744   5.85717   5.86954
 Alpha virt. eigenvalues --    6.28834   6.29158   6.30115   6.30620   6.33505
 Alpha virt. eigenvalues --    6.36838  10.92202  10.94638  11.20649  11.24263
 Alpha virt. eigenvalues --   11.69047  12.23703  12.33375  13.78000  13.80824
 Alpha virt. eigenvalues --   16.24031  16.24046  16.26410  16.26811  16.33179
 Alpha virt. eigenvalues --   16.33589  16.47119  16.92607  16.92607  16.93295
 Alpha virt. eigenvalues --   16.93296  16.93854  16.93887  16.94591  16.94606
 Alpha virt. eigenvalues --   16.95668
  Beta  occ. eigenvalues -- -353.29735 -44.36066 -38.92536 -38.92524 -38.92111
  Beta  occ. eigenvalues --  -11.20919 -11.20919 -11.18637 -11.18636  -5.63575
  Beta  occ. eigenvalues --   -3.84001  -3.83979  -3.83647  -0.99493  -0.99015
  Beta  occ. eigenvalues --   -0.83246  -0.80837  -0.78667  -0.78653  -0.78314
  Beta  occ. eigenvalues --   -0.78209  -0.75093  -0.58090  -0.57663  -0.55782
  Beta  occ. eigenvalues --   -0.55603  -0.49037  -0.48726  -0.47206  -0.46832
  Beta  occ. eigenvalues --   -0.39970  -0.33929
  Beta virt. eigenvalues --    0.07877   0.08077   0.08289   0.14864   0.18201
  Beta virt. eigenvalues --    0.20423   0.20906   0.21064   0.21509   0.22077
  Beta virt. eigenvalues --    0.23715   0.25169   0.26164   0.27076   0.29497
  Beta virt. eigenvalues --    0.32117   0.33653   0.35638   0.37263   0.39986
  Beta virt. eigenvalues --    0.40299   0.41428   0.41823   0.43365   0.44459
  Beta virt. eigenvalues --    0.48100   0.51292   0.57095   0.58680   0.61431
  Beta virt. eigenvalues --    0.61797   0.62238   0.62684   0.64525   0.64589
  Beta virt. eigenvalues --    0.65508   0.66937   0.67113   0.68586   0.68768
  Beta virt. eigenvalues --    0.69373   0.69786   0.72950   0.73407   0.75752
  Beta virt. eigenvalues --    0.77233   0.78210   0.81849   0.82509   0.88728
  Beta virt. eigenvalues --    0.91160   0.93598   0.96878   0.97675   0.98596
  Beta virt. eigenvalues --    1.00968   1.05179   1.08240   1.08477   1.09514
  Beta virt. eigenvalues --    1.11115   1.13039   1.16631   1.18355   1.19085
  Beta virt. eigenvalues --    1.19172   1.25040   1.25737   1.27611   1.28816
  Beta virt. eigenvalues --    1.30237   1.30593   1.30943   1.32251   1.33641
  Beta virt. eigenvalues --    1.36752   1.37134   1.37672   1.37925   1.38924
  Beta virt. eigenvalues --    1.40488   1.41424   1.45855   1.48332   1.51604
  Beta virt. eigenvalues --    1.51955   1.52969   1.53157   1.53675   1.55852
  Beta virt. eigenvalues --    1.58291   1.58570   1.58936   1.60827   1.65489
  Beta virt. eigenvalues --    1.66630   1.68255   1.73468   1.74338   1.76710
  Beta virt. eigenvalues --    1.78582   1.80908   1.83339   1.93171   1.95651
  Beta virt. eigenvalues --    2.50308   2.52271   2.55932   2.57107   2.63597
  Beta virt. eigenvalues --    2.67153   2.69042   2.69185   2.70673   2.71222
  Beta virt. eigenvalues --    2.76497   2.81240   2.82998   2.85026   2.87987
  Beta virt. eigenvalues --    2.88746   2.91266   2.94015   2.95654   2.95879
  Beta virt. eigenvalues --    3.02771   3.03868   3.06619   3.09341   3.09788
  Beta virt. eigenvalues --    3.11050   3.11805   3.12464   3.13449   3.15100
  Beta virt. eigenvalues --    3.16743   3.18082   3.18382   3.22125   3.23610
  Beta virt. eigenvalues --    3.24662   3.28448   3.28639   3.31571   3.31586
  Beta virt. eigenvalues --    3.33472   3.34379   3.35573   3.37960   3.40827
  Beta virt. eigenvalues --    3.41674   3.42262   3.43228   3.44566   3.47943
  Beta virt. eigenvalues --    3.49774   3.52452   3.53782   3.55037   3.58858
  Beta virt. eigenvalues --    3.59891   3.60586   3.62035   3.63610   3.65167
  Beta virt. eigenvalues --    3.65976   3.66043   3.71870   3.76162   3.76627
  Beta virt. eigenvalues --    3.78307   3.78428   3.79506   3.82709   3.83066
  Beta virt. eigenvalues --    3.83757   3.87445   3.89546   3.92010   3.99209
  Beta virt. eigenvalues --    4.00766   4.02358   4.03710   4.08556   4.09317
  Beta virt. eigenvalues --    4.11125   4.11769   4.13711   4.15588   4.16249
  Beta virt. eigenvalues --    4.18823   4.19381   4.20768   4.21529   4.22959
  Beta virt. eigenvalues --    4.25552   4.31386   4.34288   4.34404   4.35573
  Beta virt. eigenvalues --    4.35915   4.41991   4.42071   4.42390   4.43091
  Beta virt. eigenvalues --    4.43175   4.43403   4.44920   4.45995   4.47289
  Beta virt. eigenvalues --    4.49805   4.51043   4.51177   4.55329   4.58702
  Beta virt. eigenvalues --    4.59837   4.60505   4.60621   4.64832   4.68056
  Beta virt. eigenvalues --    4.69194   4.69523   4.70936   4.70990   4.77350
  Beta virt. eigenvalues --    4.79632   4.86007   4.94348   4.99637   4.99674
  Beta virt. eigenvalues --    5.04348   5.05202   5.05490   5.11408   5.16775
  Beta virt. eigenvalues --    5.16939   5.16996   5.17873   5.19540   5.23853
  Beta virt. eigenvalues --    5.24815   5.24868   5.27492   5.32718   5.33606
  Beta virt. eigenvalues --    5.34574   5.44415   5.47460   5.54632   5.55429
  Beta virt. eigenvalues --    5.56536   5.58605   5.61849   5.66602   5.67369
  Beta virt. eigenvalues --    5.70541   5.70621   5.72419   5.73879   5.74981
  Beta virt. eigenvalues --    5.76921   5.79641   5.80744   5.85717   5.86954
  Beta virt. eigenvalues --    6.28834   6.29158   6.30115   6.30620   6.33505
  Beta virt. eigenvalues --    6.36838  10.92202  10.94638  11.20649  11.24263
  Beta virt. eigenvalues --   11.69047  12.23703  12.33375  13.78000  13.80824
  Beta virt. eigenvalues --   16.24031  16.24046  16.26410  16.26811  16.33179
  Beta virt. eigenvalues --   16.33589  16.47119  16.92607  16.92607  16.93295
  Beta virt. eigenvalues --   16.93296  16.93854  16.93887  16.94591  16.94606
  Beta virt. eigenvalues --   16.95668
          Condensed to atoms (all electrons):
               1          2          3          4          5          6
     1  Zn  28.656158   0.355754  -0.036014  -0.023694  -0.022991   0.011226
     2  C    0.355754   5.221084   0.307302   0.406713   0.407217  -0.040206
     3  C   -0.036014   0.307302   4.830467  -0.038669  -0.038694   0.421813
     4  H   -0.023694   0.406713  -0.038669   0.612372  -0.036443  -0.009298
     5  H   -0.022991   0.407217  -0.038694  -0.036443   0.610383  -0.009303
     6  H    0.011226  -0.040206   0.421813  -0.009298  -0.009303   0.602451
     7  H   -0.006019  -0.039446   0.418089  -0.003550   0.007538  -0.037282
     8  H   -0.006104  -0.039858   0.417928   0.007638  -0.003550  -0.037195
     9  C    0.355754  -0.031454   0.001173   0.000993   0.000911  -0.000087
    10  C   -0.036014   0.001173  -0.000037  -0.000046  -0.000085   0.000001
    11  H   -0.023694   0.000993  -0.000046  -0.000099   0.000019   0.000003
    12  H   -0.022991   0.000911  -0.000085   0.000019  -0.000034   0.000006
    13  H    0.011226  -0.000087   0.000001   0.000003   0.000006   0.000000
    14  H   -0.006019   0.000217  -0.000004   0.000007  -0.000015   0.000000
    15  H   -0.006104   0.000239  -0.000003  -0.000013   0.000011   0.000000
               7          8          9         10         11         12
     1  Zn  -0.006019  -0.006104   0.355754  -0.036014  -0.023694  -0.022991
     2  C   -0.039446  -0.039858  -0.031454   0.001173   0.000993   0.000911
     3  C    0.418089   0.417928   0.001173  -0.000037  -0.000046  -0.000085
     4  H   -0.003550   0.007638   0.000993  -0.000046  -0.000099   0.000019
     5  H    0.007538  -0.003550   0.000911  -0.000085   0.000019  -0.000034
     6  H   -0.037282  -0.037195  -0.000087   0.000001   0.000003   0.000006
     7  H    0.614652  -0.037721   0.000217  -0.000004   0.000007  -0.000015
     8  H   -0.037721   0.615120   0.000239  -0.000003  -0.000013   0.000011
     9  C    0.000217   0.000239   5.221084   0.307302   0.406713   0.407217
    10  C   -0.000004  -0.000003   0.307302   4.830467  -0.038669  -0.038694
    11  H    0.000007  -0.000013   0.406713  -0.038669   0.612372  -0.036443
    12  H   -0.000015   0.000011   0.407217  -0.038694  -0.036443   0.610383
    13  H    0.000000   0.000000  -0.040206   0.421813  -0.009298  -0.009303
    14  H    0.000000   0.000000  -0.039446   0.418089  -0.003550   0.007538
    15  H    0.000000  -0.000003  -0.039858   0.417928   0.007638  -0.003550
              13         14         15
     1  Zn   0.011226  -0.006019  -0.006104
     2  C   -0.000087   0.000217   0.000239
     3  C    0.000001  -0.000004  -0.000003
     4  H    0.000003   0.000007  -0.000013
     5  H    0.000006  -0.000015   0.000011
     6  H    0.000000   0.000000   0.000000
     7  H    0.000000   0.000000   0.000000
     8  H    0.000000   0.000000  -0.000003
     9  C   -0.040206  -0.039446  -0.039858
    10  C    0.421813   0.418089   0.417928
    11  H   -0.009298  -0.003550   0.007638
    12  H   -0.009303   0.007538  -0.003550
    13  H    0.602451  -0.037282  -0.037195
    14  H   -0.037282   0.614652  -0.037721
    15  H   -0.037195  -0.037721   0.615120
          Atomic-Atomic Spin Densities.
               1          2          3          4          5          6
     1  Zn   0.000000   0.000000   0.000000   0.000000   0.000000   0.000000
     2  C    0.000000  -0.000001   0.000000   0.000000   0.000000   0.000000
     3  C    0.000000   0.000000  -0.000002   0.000000   0.000000   0.000000
     4  H    0.000000   0.000000   0.000000   0.000001   0.000000   0.000000
     5  H    0.000000   0.000000   0.000000   0.000000   0.000001   0.000000
     6  H    0.000000   0.000000   0.000000   0.000000   0.000000   0.000001
     7  H    0.000000   0.000000   0.000000   0.000000   0.000000   0.000000
     8  H    0.000000   0.000000   0.000000   0.000000   0.000000   0.000000
     9  C    0.000000   0.000000   0.000000   0.000000   0.000000   0.000000
    10  C    0.000000   0.000000   0.000000   0.000000   0.000000   0.000000
    11  H    0.000000   0.000000   0.000000   0.000000   0.000000   0.000000
    12  H    0.000000   0.000000   0.000000   0.000000   0.000000   0.000000
    13  H    0.000000   0.000000   0.000000   0.000000   0.000000   0.000000
    14  H    0.000000   0.000000   0.000000   0.000000   0.000000   0.000000
    15  H    0.000000   0.000000   0.000000   0.000000   0.000000   0.000000
               7          8          9         10         11         12
     1  Zn   0.000000   0.000000   0.000000   0.000000   0.000000   0.000000
     2  C    0.000000   0.000000   0.000000   0.000000   0.000000   0.000000
     3  C    0.000000   0.000000   0.000000   0.000000   0.000000   0.000000
     4  H    0.000000   0.000000   0.000000   0.000000   0.000000   0.000000
     5  H    0.000000   0.000000   0.000000   0.000000   0.000000   0.000000
     6  H    0.000000   0.000000   0.000000   0.000000   0.000000   0.000000
     7  H    0.000001   0.000000   0.000000   0.000000   0.000000   0.000000
     8  H    0.000000   0.000001   0.000000   0.000000   0.000000   0.000000
     9  C    0.000000   0.000000  -0.000001   0.000000   0.000000   0.000000
    10  C    0.000000   0.000000   0.000000  -0.000002   0.000000   0.000000
    11  H    0.000000   0.000000   0.000000   0.000000   0.000001   0.000000
    12  H    0.000000   0.000000   0.000000   0.000000   0.000000   0.000001
    13  H    0.000000   0.000000   0.000000   0.000000   0.000000   0.000000
    14  H    0.000000   0.000000   0.000000   0.000000   0.000000   0.000000
    15  H    0.000000   0.000000   0.000000   0.000000   0.000000   0.000000
              13         14         15
     1  Zn   0.000000   0.000000   0.000000
     2  C    0.000000   0.000000   0.000000
     3  C    0.000000   0.000000   0.000000
     4  H    0.000000   0.000000   0.000000
     5  H    0.000000   0.000000   0.000000
     6  H    0.000000   0.000000   0.000000
     7  H    0.000000   0.000000   0.000000
     8  H    0.000000   0.000000   0.000000
     9  C    0.000000   0.000000   0.000000
    10  C    0.000000   0.000000   0.000000
    11  H    0.000000   0.000000   0.000000
    12  H    0.000000   0.000000   0.000000
    13  H    0.000001   0.000000   0.000000
    14  H    0.000000   0.000001   0.000000
    15  H    0.000000   0.000000   0.000001
 Mulliken charges and spin densities:
               1          2
     1  Zn   0.799527   0.000000
     2  C   -0.550554  -0.000001
     3  C   -0.283221  -0.000002
     4  H    0.084069   0.000000
     5  H    0.085030   0.000000
     6  H    0.097869   0.000001
     7  H    0.083534   0.000000
     8  H    0.083509   0.000000
     9  C   -0.550554  -0.000001
    10  C   -0.283221  -0.000002
    11  H    0.084069   0.000000
    12  H    0.085030   0.000000
    13  H    0.097869   0.000001
    14  H    0.083534   0.000000
    15  H    0.083509   0.000000
 Sum of Mulliken charges =   0.00000   0.00000
 Mulliken charges and spin densities with hydrogens summed into heavy atoms:
               1          2
     1  Zn   0.799527   0.000000
     2  C   -0.381455   0.000000
     3  C   -0.018308   0.000000
     9  C   -0.381455   0.000000
    10  C   -0.018308   0.000000
 Electronic spatial extent (au):  <R**2>=            968.2959
 Charge=              0.0000 electrons
 Dipole moment (field-independent basis, Debye):
    X=              0.0000    Y=              0.0000    Z=              0.0734  Tot=              0.0734
 Quadrupole moment (field-independent basis, Debye-Ang):
   XX=            -42.5650   YY=            -49.7939   ZZ=            -40.9558
   XY=             -1.1688   XZ=              0.0000   YZ=              0.0000
 Traceless Quadrupole moment (field-independent basis, Debye-Ang):
   XX=              1.8732   YY=             -5.3556   ZZ=              3.4824
   XY=             -1.1688   XZ=              0.0000   YZ=              0.0000
 Octapole moment (field-independent basis, Debye-Ang**2):
  XXX=              0.0000  YYY=              0.0000  ZZZ=              3.6119  XYY=              0.0000
  XXY=              0.0000  XXZ=              2.0398  XZZ=              0.0000  YZZ=              0.0000
  YYZ=              1.4148  XYZ=              1.0934
 Hexadecapole moment (field-independent basis, Debye-Ang**3):
 XXXX=           -267.6927 YYYY=          -1085.8741 ZZZZ=            -78.0987 XXXY=           -175.6363
 XXXZ=              0.0000 YYYX=           -177.7818 YYYZ=              0.0000 ZZZX=              0.0000
 ZZZY=              0.0000 XXYY=           -234.4106 XXZZ=            -54.9516 YYZZ=           -190.5378
 XXYZ=              0.0000 YYXZ=              0.0000 ZZXY=            -56.1666
 N-N= 3.207392817687D+02 E-N=-5.269258838773D+03  KE= 1.935099961090D+03
 Symmetry A    KE= 1.416975838242D+03
 Symmetry B    KE= 5.181241228477D+02
                          Isotropic Fermi Contact Couplings
        Atom                 a.u.       MegaHertz       Gauss      10(-4) cm-1
     1  Zn(67)             0.00000       0.00017       0.00006       0.00006
     2  C(13)              0.00000      -0.00003      -0.00001      -0.00001
     3  C(13)              0.00000      -0.00046      -0.00016      -0.00015
     4  H(1)               0.00000       0.00020       0.00007       0.00007
     5  H(1)               0.00000       0.00020       0.00007       0.00007
     6  H(1)               0.00000       0.00035       0.00012       0.00012
     7  H(1)               0.00000       0.00030       0.00011       0.00010
     8  H(1)               0.00000       0.00030       0.00011       0.00010
     9  C(13)              0.00000      -0.00003      -0.00001      -0.00001
    10  C(13)              0.00000      -0.00046      -0.00016      -0.00015
    11  H(1)               0.00000       0.00020       0.00007       0.00007
    12  H(1)               0.00000       0.00020       0.00007       0.00007
    13  H(1)               0.00000       0.00035       0.00012       0.00012
    14  H(1)               0.00000       0.00030       0.00011       0.00010
    15  H(1)               0.00000       0.00030       0.00011       0.00010
 --------------------------------------------------------
       Center         ----  Spin Dipole Couplings  ----
                      3XX-RR        3YY-RR        3ZZ-RR
 --------------------------------------------------------
     1   Atom        0.000000      0.000000      0.000000
     2   Atom        0.000000      0.000000      0.000000
     3   Atom        0.000000      0.000000      0.000000
     4   Atom        0.000000      0.000000      0.000000
     5   Atom        0.000000      0.000000      0.000000
     6   Atom        0.000000      0.000000      0.000000
     7   Atom        0.000000      0.000000      0.000000
     8   Atom        0.000000      0.000000      0.000000
     9   Atom        0.000000      0.000000      0.000000
    10   Atom        0.000000      0.000000      0.000000
    11   Atom        0.000000      0.000000      0.000000
    12   Atom        0.000000      0.000000      0.000000
    13   Atom        0.000000      0.000000      0.000000
    14   Atom        0.000000      0.000000      0.000000
    15   Atom        0.000000      0.000000      0.000000
 --------------------------------------------------------
                        XY            XZ            YZ
 --------------------------------------------------------
     1   Atom        0.000000      0.000000      0.000000
     2   Atom        0.000000      0.000000      0.000000
     3   Atom        0.000000      0.000000      0.000000
     4   Atom        0.000000      0.000000      0.000000
     5   Atom        0.000000      0.000000      0.000000
     6   Atom        0.000000      0.000000      0.000000
     7   Atom        0.000000      0.000000      0.000000
     8   Atom        0.000000      0.000000      0.000000
     9   Atom        0.000000      0.000000      0.000000
    10   Atom        0.000000      0.000000      0.000000
    11   Atom        0.000000      0.000000      0.000000
    12   Atom        0.000000      0.000000      0.000000
    13   Atom        0.000000      0.000000      0.000000
    14   Atom        0.000000      0.000000      0.000000
    15   Atom        0.000000      0.000000      0.000000
 --------------------------------------------------------


 ---------------------------------------------------------------------------------
              Anisotropic Spin Dipole Couplings in Principal Axis System
 ---------------------------------------------------------------------------------

       Atom             a.u.   MegaHertz   Gauss  10(-4) cm-1        Axes

              Baa     0.0000     0.000     0.000     0.000  0.0000  0.0000  1.0000
     1 Zn(67) Bbb     0.0000     0.000     0.000     0.000  0.9992  0.0407  0.0000
              Bcc     0.0000     0.000     0.000     0.000 -0.0407  0.9992  0.0000
 
              Baa     0.0000     0.000     0.000     0.000  0.2532 -0.0238  0.9671
     2 C(13)  Bbb     0.0000     0.000     0.000     0.000 -0.6597  0.7269  0.1906
              Bcc     0.0000     0.000     0.000     0.000  0.7076  0.6863 -0.1684
 
              Baa     0.0000     0.000     0.000     0.000 -0.4559  0.8835  0.1080
     3 C(13)  Bbb     0.0000     0.000     0.000     0.000  0.2322  0.0010  0.9727
              Bcc     0.0000     0.000     0.000     0.000  0.8592  0.4685 -0.2056
 
              Baa     0.0000     0.000     0.000     0.000 -0.3306  0.2152  0.9189
     4 H(1)   Bbb     0.0000     0.000     0.000     0.000 -0.4680  0.8081 -0.3577
              Bcc     0.0000     0.000     0.000     0.000  0.8195  0.5483  0.1665
 
              Baa     0.0000     0.000     0.000     0.000  0.7096 -0.2142  0.6712
     5 H(1)   Bbb     0.0000     0.000     0.000     0.000 -0.2500  0.8141  0.5241
[...]
 Alpha virt. eigenvalues --    0.32117   0.33653   0.35638   0.37263   0.39986
 Alpha virt. eigenvalues --    0.40299   0.41428   0.41823   0.43365   0.44459
 Alpha virt. eigenvalues --    0.48100   0.51292   0.57095   0.58680   0.61431
 Alpha virt. eigenvalues --    0.61797   0.62238   0.62684   0.64525   0.64589
 Alpha virt. eigenvalues --    0.65508   0.66937   0.67113   0.68586   0.68768
 Alpha virt. eigenvalues --    0.69373   0.69786   0.72950   0.73407   0.75752
 Alpha virt. eigenvalues --    0.77233   0.78210   0.81849   0.82509   0.88728
 Alpha virt. eigenvalues --    0.91160   0.93598   0.96878   0.97675   0.98596
 Alpha virt. eigenvalues --    1.00968   1.05179   1.08240   1.08477   1.09514
 Alpha virt. eigenvalues --    1.11115   1.13039   1.16631   1.18355   1.19085
 Alpha virt. eigenvalues --    1.19172   1.25040   1.25737   1.27611   1.28816
 Alpha virt. eigenvalues --    1.30237   1.30593   1.30943   1.32251   1.33641
 Alpha virt. eigenvalues --    1.36752   1.37134   1.37672   1.37925   1.38924
 Alpha virt. eigenvalues --    1.40488   1.41424   1.45855   1.48332   1.51604
 Alpha virt. eigenvalues --    1.51955   1.52969   1.53157   1.53675   1.55852
 Alpha virt. eigenvalues --    1.58291   1.58570   1.58936   1.60827   1.65489
 Alpha virt. eigenvalues --    1.66630   1.68255   1.73468   1.74338   1.76710
 Alpha virt. eigenvalues --    1.78582   1.80908   1.83339   1.93171   1.95651
 Alpha virt. eigenvalues --    2.50308   2.52271   2.55932   2.57107   2.63597
 Alpha virt. eigenvalues --    2.67153   2.69042   2.69185   2.70673   2.71222
 Alpha virt. eigenvalues --    2.76497   2.81240   2.82998   2.85026   2.87987
 Alpha virt. eigenvalues --    2.88746   2.91266   2.94015   2.95654   2.95879
 Alpha virt. eigenvalues --    3.02771   3.03868   3.06619   3.09341   3.09788
 Alpha virt. eigenvalues --    3.11050   3.11805   3.12464   3.13449   3.15100
 Alpha virt. eigenvalues --    3.16743   3.18082   3.18382   3.22125   3.23610
 Alpha virt. eigenvalues --    3.24662   3.28448   3.28639   3.31571   3.31586
 Alpha virt. eigenvalues --    3.33472   3.34379   3.35573   3.37960   3.40827
 Alpha virt. eigenvalues --    3.41674   3.42262   3.43228   3.44566   3.47943
 Alpha virt. eigenvalues --    3.49774   3.52452   3.53782   3.55037   3.58858
 Alpha virt. eigenvalues --    3.59891   3.60586   3.62035   3.63610   3.65167
 Alpha virt. eigenvalues --    3.65976   3.66043   3.71870   3.76161   3.76627
 Alpha virt. eigenvalues --    3.78307   3.78428   3.79506   3.82709   3.83066
 Alpha virt. eigenvalues --    3.83757   3.87445   3.89546   3.92010   3.99209
 Alpha virt. eigenvalues --    4.00766   4.02358   4.03710   4.08556   4.09317
 Alpha virt. eigenvalues --    4.11125   4.11769   4.13711   4.15588   4.16249
 Alpha virt. eigenvalues --    4.18823   4.19381   4.20768   4.21529   4.22959
 Alpha virt. eigenvalues --    4.25552   4.31386   4.34288   4.34404   4.35573
 Alpha virt. eigenvalues --    4.35915   4.41991   4.42071   4.42390   4.43091
 Alpha virt. eigenvalues --    4.43175   4.43403   4.44920   4.45995   4.47289
 Alpha virt. eigenvalues --    4.49805   4.51043   4.51177   4.55329   4.58702
 Alpha virt. eigenvalues --    4.59837   4.60505   4.60621   4.64832   4.68056
 Alpha virt. eigenvalues --    4.69194   4.69523   4.70936   4.70990   4.77350
 Alpha virt. eigenvalues --    4.79632   4.86007   4.94348   4.99637   4.99674
 Alpha virt. eigenvalues --    5.04348   5.05202   5.05490   5.11408   5.16775
 Alpha virt. eigenvalues --    5.16939   5.16996   5.17873   5.19540   5.23853
 Alpha virt. eigenvalues --    5.24815   5.24868   5.27492   5.32718   5.33606
 Alpha virt. eigenvalues --    5.34574   5.44415   5.47460   5.54632   5.55429
 Alpha virt. eigenvalues --    5.56536   5.58605   5.61849   5.66602   5.67369
 Alpha virt. eigenvalues --    5.70541   5.70621   5.72419   5.73879   5.74981
 Alpha virt. eigenvalues --    5.76921   5.79641   5.80744   5.85717   5.86954
 Alpha virt. eigenvalues --    6.28834   6.29158   6.30115   6.30620   6.33505
 Alpha virt. eigenvalues --    6.36838  10.92202  10.94638  11.20649  11.24263
 Alpha virt. eigenvalues --   11.69047  12.23703  12.33375  13.78000  13.80824
 Alpha virt. eigenvalues --   16.24031  16.24046  16.26410  16.26811  16.33179
 Alpha virt. eigenvalues --   16.33589  16.47119  16.92607  16.92607  16.93295
 Alpha virt. eigenvalues --   16.93296  16.93854  16.93887  16.94591  16.94606
 Alpha virt. eigenvalues --   16.95668
  Beta  occ. eigenvalues -- -353.29735 -44.36066 -38.92536 -38.92524 -38.92111
  Beta  occ. eigenvalues --  -11.20919 -11.20919 -11.18637 -11.18636  -5.63575
  Beta  occ. eigenvalues --   -3.84001  -3.83979  -3.83647  -0.99493  -0.99015
  Beta  occ. eigenvalues --   -0.83246  -0.80837  -0.78667  -0.78653  -0.78314
  Beta  occ. eigenvalues --   -0.78209  -0.75093  -0.58090  -0.57663  -0.55782
  Beta  occ. eigenvalues --   -0.55603  -0.49037  -0.48726  -0.47206  -0.46832
  Beta  occ. eigenvalues --   -0.39970  -0.33929
  Beta virt. eigenvalues --    0.07877   0.08077   0.08289   0.14864   0.18201
  Beta virt. eigenvalues --    0.20423   0.20906   0.21064   0.21509   0.22077
  Beta virt. eigenvalues --    0.23715   0.25169   0.26164   0.27076   0.29497
  Beta virt. eigenvalues --    0.32117   0.33653   0.35638   0.37263   0.39986
  Beta virt. eigenvalues --    0.40299   0.41428   0.41823   0.43365   0.44459
  Beta virt. eigenvalues --    0.48100   0.51292   0.57095   0.58680   0.61431
  Beta virt. eigenvalues --    0.61797   0.62238   0.62684   0.64525   0.64589
  Beta virt. eigenvalues --    0.65508   0.66937   0.67113   0.68586   0.68768
  Beta virt. eigenvalues --    0.69373   0.69786   0.72950   0.73407   0.75752
  Beta virt. eigenvalues --    0.77233   0.78210   0.81849   0.82509   0.88728
  Beta virt. eigenvalues --    0.91160   0.93598   0.96878   0.97675   0.98596
  Beta virt. eigenvalues --    1.00968   1.05179   1.08240   1.08477   1.09514
  Beta virt. eigenvalues --    1.11115   1.13039   1.16631   1.18355   1.19085
  Beta virt. eigenvalues --    1.19172   1.25040   1.25737   1.27611   1.28816
  Beta virt. eigenvalues --    1.30237   1.30593   1.30943   1.32251   1.33641
  Beta virt. eigenvalues --    1.36752   1.37134   1.37672   1.37925   1.38924
  Beta virt. eigenvalues --    1.40488   1.41424   1.45855   1.48332   1.51604
  Beta virt. eigenvalues --    1.51955   1.52969   1.53157   1.53675   1.55852
  Beta virt. eigenvalues --    1.58291   1.58570   1.58936   1.60827   1.65489
  Beta virt. eigenvalues --    1.66630   1.68255   1.73468   1.74338   1.76710
  Beta virt. eigenvalues --    1.78582   1.80908   1.83339   1.93171   1.95651
  Beta virt. eigenvalues --    2.50308   2.52271   2.55932   2.57107   2.63597
  Beta virt. eigenvalues --    2.67153   2.69042   2.69185   2.70673   2.71222
  Beta virt. eigenvalues --    2.76497   2.81240   2.82998   2.85026   2.87987
  Beta virt. eigenvalues --    2.88746   2.91266   2.94015   2.95654   2.95879
  Beta virt. eigenvalues --    3.02771   3.03868   3.06619   3.09341   3.09788
  Beta virt. eigenvalues --    3.11050   3.11805   3.12464   3.13449   3.15100
  Beta virt. eigenvalues --    3.16743   3.18082   3.18382   3.22125   3.23610
  Beta virt. eigenvalues --    3.24662   3.28448   3.28639   3.31571   3.31586
  Beta virt. eigenvalues --    3.33472   3.34379   3.35573   3.37960   3.40827
  Beta virt. eigenvalues --    3.41674   3.42262   3.43228   3.44566   3.47943
  Beta virt. eigenvalues --    3.49774   3.52452   3.53782   3.55037   3.58858
  Beta virt. eigenvalues --    3.59891   3.60586   3.62035   3.63610   3.65167
  Beta virt. eigenvalues --    3.65976   3.66043   3.71870   3.76162   3.76627
  Beta virt. eigenvalues --    3.78307   3.78428   3.79506   3.82709   3.83066
  Beta virt. eigenvalues --    3.83757   3.87445   3.89546   3.92010   3.99209
  Beta virt. eigenvalues --    4.00766   4.02358   4.03710   4.08556   4.09317
  Beta virt. eigenvalues --    4.11125   4.11769   4.13711   4.15588   4.16249
  Beta virt. eigenvalues --    4.18823   4.19381   4.20768   4.21529   4.22959
  Beta virt. eigenvalues --    4.25552   4.31386   4.34288   4.34404   4.35573
  Beta virt. eigenvalues --    4.35915   4.41991   4.42071   4.42390   4.43091
  Beta virt. eigenvalues --    4.43175   4.43403   4.44920   4.45995   4.47289
  Beta virt. eigenvalues --    4.49805   4.51043   4.51177   4.55329   4.58702
  Beta virt. eigenvalues --    4.59837   4.60505   4.60621   4.64832   4.68056
  Beta virt. eigenvalues --    4.69194   4.69523   4.70936   4.70990   4.77350
  Beta virt. eigenvalues --    4.79632   4.86007   4.94348   4.99637   4.99674
  Beta virt. eigenvalues --    5.04348   5.05202   5.05490   5.11408   5.16775
  Beta virt. eigenvalues --    5.16939   5.16996   5.17873   5.19540   5.23853
  Beta virt. eigenvalues --    5.24815   5.24868   5.27492   5.32718   5.33606
  Beta virt. eigenvalues --    5.34574   5.44415   5.47460   5.54632   5.55429
  Beta virt. eigenvalues --    5.56536   5.58605   5.61849   5.66602   5.67369
  Beta virt. eigenvalues --    5.70541   5.70621   5.72419   5.73879   5.74981
  Beta virt. eigenvalues --    5.76921   5.79641   5.80744   5.85717   5.86954
  Beta virt. eigenvalues --    6.28834   6.29158   6.30115   6.30620   6.33505
  Beta virt. eigenvalues --    6.36838  10.92202  10.94638  11.20649  11.24263
  Beta virt. eigenvalues --   11.69047  12.23703  12.33375  13.78000  13.80824
  Beta virt. eigenvalues --   16.24031  16.24046  16.26410  16.26811  16.33179
  Beta virt. eigenvalues --   16.33589  16.47119  16.92607  16.92607  16.93295
  Beta virt. eigenvalues --   16.93296  16.93854  16.93887  16.94591  16.94606
  Beta virt. eigenvalues --   16.95668
          Condensed to atoms (all electrons):
               1          2          3          4          5          6
     1  Zn  28.656158   0.355754  -0.036014  -0.023694  -0.022991   0.011226
     2  C    0.355754   5.221084   0.307302   0.406713   0.407217  -0.040206
     3  C   -0.036014   0.307302   4.830467  -0.038669  -0.038694   0.421813
     4  H   -0.023694   0.406713  -0.038669   0.612372  -0.036443  -0.009298
     5  H   -0.022991   0.407217  -0.038694  -0.036443   0.610383  -0.009303
     6  H    0.011226  -0.040206   0.421813  -0.009298  -0.009303   0.602451
     7  H   -0.006019  -0.039446   0.418089  -0.003550   0.007538  -0.037282
     8  H   -0.006104  -0.039858   0.417928   0.007638  -0.003550  -0.037195
     9  C    0.355754  -0.031454   0.001173   0.000993   0.000911  -0.000087
    10  C   -0.036014   0.001173  -0.000037  -0.000046  -0.000085   0.000001
    11  H   -0.023694   0.000993  -0.000046  -0.000099   0.000019   0.000003
    12  H   -0.022991   0.000911  -0.000085   0.000019  -0.000034   0.000006
    13  H    0.011226  -0.000087   0.000001   0.000003   0.000006   0.000000
    14  H   -0.006019   0.000217  -0.000004   0.000007  -0.000015   0.000000
    15  H   -0.006104   0.000239  -0.000003  -0.000013   0.000011   0.000000
               7          8          9         10         11         12
     1  Zn  -0.006019  -0.006104   0.355754  -0.036014  -0.023694  -0.022991
     2  C   -0.039446  -0.039858  -0.031454   0.001173   0.000993   0.000911
     3  C    0.418089   0.417928   0.001173  -0.000037  -0.000046  -0.000085
     4  H   -0.003550   0.007638   0.000993  -0.000046  -0.000099   0.000019
     5  H    0.007538  -0.003550   0.000911  -0.000085   0.000019  -0.000034
     6  H   -0.037282  -0.037195  -0.000087   0.000001   0.000003   0.000006
     7  H    0.614652  -0.037721   0.000217  -0.000004   0.000007  -0.000015
     8  H   -0.037721   0.615120   0.000239  -0.000003  -0.000013   0.000011
     9  C    0.000217   0.000239   5.221084   0.307302   0.406713   0.407217
    10  C   -0.000004  -0.000003   0.307302   4.830467  -0.038669  -0.038694
    11  H    0.000007  -0.000013   0.406713  -0.038669   0.612372  -0.036443
    12  H   -0.000015   0.000011   0.407217  -0.038694  -0.036443   0.610383
    13  H    0.000000   0.000000  -0.040206   0.421813  -0.009298  -0.009303
    14  H    0.000000   0.000000  -0.039446   0.418089  -0.003550   0.007538
    15  H    0.000000  -0.000003  -0.039858   0.417928   0.007638  -0.003550
              13         14         15
     1  Zn   0.011226  -0.006019  -0.006104
     2  C   -0.000087   0.000217   0.000239
     3  C    0.000001  -0.000004  -0.000003
     4  H    0.000003   0.000007  -0.000013
     5  H    0.000006  -0.000015   0.000011
     6  H    0.000000   0.000000   0.000000
     7  H    0.000000   0.000000   0.000000
     8  H    0.000000   0.000000  -0.000003
     9  C   -0.040206  -0.039446  -0.039858
    10  C    0.421813   0.418089   0.417928
    11  H   -0.009298  -0.003550   0.007638
    12  H   -0.009303   0.007538  -0.003550
    13  H    0.602451  -0.037282  -0.037195
    14  H   -0.037282   0.614652  -0.037721
    15  H   -0.037195  -0.037721   0.615120
          Atomic-Atomic Spin Densities.
               1          2          3          4          5          6
     1  Zn   0.000000   0.000000   0.000000   0.000000   0.000000   0.000000
     2  C    0.000000  -0.000001   0.000000   0.000000   0.000000   0.000000
     3  C    0.000000   0.000000  -0.000001   0.000000   0.000000   0.000000
     4  H    0.000000   0.000000   0.000000   0.000000   0.000000   0.000000
     5  H    0.000000   0.000000   0.000000   0.000000   0.000000   0.000000
     6  H    0.000000   0.000000   0.000000   0.000000   0.000000   0.000000
     7  H    0.000000   0.000000   0.000000   0.000000   0.000000   0.000000
     8  H    0.000000   0.000000   0.000000   0.000000   0.000000   0.000000
     9  C    0.000000   0.000000   0.000000   0.000000   0.000000   0.000000
    10  C    0.000000   0.000000   0.000000   0.000000   0.000000   0.000000
    11  H    0.000000   0.000000   0.000000   0.000000   0.000000   0.000000
    12  H    0.000000   0.000000   0.000000   0.000000   0.000000   0.000000
    13  H    0.000000   0.000000   0.000000   0.000000   0.000000   0.000000
    14  H    0.000000   0.000000   0.000000   0.000000   0.000000   0.000000
    15  H    0.000000   0.000000   0.000000   0.000000   0.000000   0.000000
               7          8          9         10         11         12
     1  Zn   0.000000   0.000000   0.000000   0.000000   0.000000   0.000000
     2  C    0.000000   0.000000   0.000000   0.000000   0.000000   0.000000
     3  C    0.000000   0.000000   0.000000   0.000000   0.000000   0.000000
     4  H    0.000000   0.000000   0.000000   0.000000   0.000000   0.000000
     5  H    0.000000   0.000000   0.000000   0.000000   0.000000   0.000000
     6  H    0.000000   0.000000   0.000000   0.000000   0.000000   0.000000
     7  H    0.000000   0.000000   0.000000   0.000000   0.000000   0.000000
     8  H    0.000000   0.000000   0.000000   0.000000   0.000000   0.000000
     9  C    0.000000   0.000000  -0.000001   0.000000   0.000000   0.000000
    10  C    0.000000   0.000000   0.000000  -0.000001   0.000000   0.000000
    11  H    0.000000   0.000000   0.000000   0.000000   0.000000   0.000000
    12  H    0.000000   0.000000   0.000000   0.000000   0.000000   0.000000
    13  H    0.000000   0.000000   0.000000   0.000000   0.000000   0.000000
    14  H    0.000000   0.000000   0.000000   0.000000   0.000000   0.000000
    15  H    0.000000   0.000000   0.000000   0.000000   0.000000   0.000000
              13         14         15
     1  Zn   0.000000   0.000000   0.000000
     2  C    0.000000   0.000000   0.000000
     3  C    0.000000   0.000000   0.000000
     4  H    0.000000   0.000000   0.000000
     5  H    0.000000   0.000000   0.000000
     6  H    0.000000   0.000000   0.000000
     7  H    0.000000   0.000000   0.000000
     8  H    0.000000   0.000000   0.000000
     9  C    0.000000   0.000000   0.000000
    10  C    0.000000   0.000000   0.000000
    11  H    0.000000   0.000000   0.000000
    12  H    0.000000   0.000000   0.000000
    13  H    0.000000   0.000000   0.000000
    14  H    0.000000   0.000000   0.000000
    15  H    0.000000   0.000000   0.000000
 Mulliken charges and spin densities:
               1          2
     1  Zn   0.799527   0.000000
     2  C   -0.550554  -0.000001
     3  C   -0.283221  -0.000001
     4  H    0.084069   0.000000
     5  H    0.085029   0.000000
     6  H    0.097869   0.000000
     7  H    0.083534   0.000000
     8  H    0.083509   0.000000
     9  C   -0.550554  -0.000001
    10  C   -0.283221  -0.000001
    11  H    0.084069   0.000000
    12  H    0.085029   0.000000
    13  H    0.097869   0.000000
    14  H    0.083534   0.000000
    15  H    0.083509   0.000000
 Sum of Mulliken charges =   0.00000   0.00000
 Mulliken charges and spin densities with hydrogens summed into heavy atoms:
               1          2
     1  Zn   0.799527   0.000000
     2  C   -0.381455   0.000000
     3  C   -0.018308   0.000000
     9  C   -0.381455   0.000000
    10  C   -0.018308   0.000000
 Electronic spatial extent (au):  <R**2>=            968.2959
 Charge=              0.0000 electrons
 Dipole moment (field-independent basis, Debye):
    X=              0.0000    Y=              0.0000    Z=              0.0734  Tot=              0.0734
 Quadrupole moment (field-independent basis, Debye-Ang):
   XX=            -42.5650   YY=            -49.7939   ZZ=            -40.9558
   XY=             -1.1688   XZ=              0.0000   YZ=              0.0000
 Traceless Quadrupole moment (field-independent basis, Debye-Ang):
   XX=              1.8732   YY=             -5.3556   ZZ=              3.4824
   XY=             -1.1688   XZ=              0.0000   YZ=              0.0000
 Octapole moment (field-independent basis, Debye-Ang**2):
  XXX=              0.0000  YYY=              0.0000  ZZZ=              3.6119  XYY=              0.0000
  XXY=              0.0000  XXZ=              2.0398  XZZ=              0.0000  YZZ=              0.0000
  YYZ=              1.4148  XYZ=              1.0934
 Hexadecapole moment (field-independent basis, Debye-Ang**3):
 XXXX=           -267.6927 YYYY=          -1085.8741 ZZZZ=            -78.0987 XXXY=           -175.6363
 XXXZ=              0.0000 YYYX=           -177.7818 YYYZ=              0.0000 ZZZX=              0.0000
 ZZZY=              0.0000 XXYY=           -234.4106 XXZZ=            -54.9516 YYZZ=           -190.5378
 XXYZ=              0.0000 YYXZ=              0.0000 ZZXY=            -56.1666
 N-N= 3.207392817687D+02 E-N=-5.269258838135D+03  KE= 1.935099960925D+03
 Symmetry A    KE= 1.416975838085D+03
 Symmetry B    KE= 5.181241228400D+02
 1\1\GINC-GAMBA\SP\UCCSD(T)-FC\Gen\C4H10Zn1\IRIKURA\25-May-2017\0\\# CC
 SD(T,maxcyc=100)/GEN gfinput geom=check scf=xqc guess=check\\BEB step 
 6: CCSD(T) for neutral ZnEt2\\0,1\Zn,0,0.,0.,0.092059\C,0,0.,1.933945,
 0.090127\C,0,1.360973,2.577345,-0.233751\H,0,-0.346594,2.294125,1.0698
 41\H,0,-0.75069,2.294418,-0.628225\H,0,1.311324,3.675407,-0.22301\H,0,
 2.134924,2.28887,0.488877\H,0,1.727459,2.287037,-1.226622\C,0,0.,-1.93
 3945,0.090127\C,0,-1.360973,-2.577345,-0.233751\H,0,0.346594,-2.294125
 ,1.069841\H,0,0.75069,-2.294418,-0.628225\H,0,-1.311324,-3.675407,-0.2
 2301\H,0,-2.134924,-2.28887,0.488877\H,0,-1.727459,-2.287037,-1.226622
 \\Version=ES64L-G09RevD.01\State=1-A\HF=-1935.1566682\MP2=-1936.415532
 7\MP3=-1936.3901778\MP4D=-1936.4291929\MP4DQ=-1936.4119207\PUHF=-1935.
 1566682\PMP2-0=-1936.4155327\PMP3-0=-1936.3901778\MP4SDQ=-1936.424712\
 CCSD=-1936.4123205\CCSD(T)=-1936.4590972\S2=0.\S2-1=0.\S2A=0.\RMSD=1.1
 81e-09\PG=C02 [C2(Zn1),X(C4H10)]\\@


 Where a calculator on the ENIAC is equipped with 18,000
 vacuum tubes and weighs 30 tons, computers inthe future
 may  have only 1,000 vacuum tubes and weigh only 1 1/2 tons.
              ---Popular Mechanics, March 1949
 Job cpu time:       0 days 19 hours 11 minutes 56.2 seconds.
 File lengths (MBytes):  RWF=  12891 Int=      0 D2E=      0 Chk=     17 Scr=      1
 Normal termination of Gaussian 09 at Thu May 25 19:22:12 2017.
