 Entering Gaussian System, Link 0=g09
 Initial command:
 /usr/local/apps/g09/l1.exe "/wrk/irikura/Gau-18171.inp" -scrdir="/wrk/irikura/"
 Entering Link 1 = /usr/local/apps/g09/l1.exe PID=     18173.
  
 Copyright (c) 1988,1990,1992,1993,1995,1998,2003,2009,2013,
            Gaussian, Inc.  All Rights Reserved.
  
 This is part of the Gaussian(R) 09 program.  It is based on
 the Gaussian(R) 03 system (copyright 2003, Gaussian, Inc.),
 the Gaussian(R) 98 system (copyright 1998, Gaussian, Inc.),
 the Gaussian(R) 94 system (copyright 1995, Gaussian, Inc.),
 the Gaussian 92(TM) system (copyright 1992, Gaussian, Inc.),
 the Gaussian 90(TM) system (copyright 1990, Gaussian, Inc.),
 the Gaussian 88(TM) system (copyright 1988, Gaussian, Inc.),
 the Gaussian 86(TM) system (copyright 1986, Carnegie Mellon
 University), and the Gaussian 82(TM) system (copyright 1983,
 Carnegie Mellon University). Gaussian is a federally registered
 trademark of Gaussian, Inc.
  
 This software contains proprietary and confidential information,
 including trade secrets, belonging to Gaussian, Inc.
  
 This software is provided under written license and may be
 used, copied, transmitted, or stored only in accord with that
 written license.
  
 The following legend is applicable only to US Government
 contracts under FAR:
  
                    RESTRICTED RIGHTS LEGEND
  
 Use, reproduction and disclosure by the US Government is
 subject to restrictions as set forth in subparagraphs (a)
 and (c) of the Commercial Computer Software - Restricted
 Rights clause in FAR 52.227-19.
  
 Gaussian, Inc.
 340 Quinnipiac St., Bldg. 40, Wallingford CT 06492
  
  
 ---------------------------------------------------------------
 Warning -- This program may not be used in any manner that
 competes with the business of Gaussian, Inc. or will provide
 assistance to any competitor of Gaussian, Inc.  The licensee
 of this program is prohibited from giving any competitor of
 Gaussian, Inc. access to this program.  By using this program,
 the user acknowledges that Gaussian, Inc. is engaged in the
 business of creating and licensing software in the field of
 computational chemistry and represents and warrants to the
 licensee that it is not a competitor of Gaussian, Inc. and that
 it will not use this program in any manner prohibited above.
 ---------------------------------------------------------------
  

 Cite this work as:
 Gaussian 09, Revision D.01,
 M. J. Frisch, G. W. Trucks, H. B. Schlegel, G. E. Scuseria, 
 M. A. Robb, J. R. Cheeseman, G. Scalmani, V. Barone, B. Mennucci, 
 G. A. Petersson, H. Nakatsuji, M. Caricato, X. Li, H. P. Hratchian, 
 A. F. Izmaylov, J. Bloino, G. Zheng, J. L. Sonnenberg, M. Hada, 
 M. Ehara, K. Toyota, R. Fukuda, J. Hasegawa, M. Ishida, T. Nakajima, 
 Y. Honda, O. Kitao, H. Nakai, T. Vreven, J. A. Montgomery, Jr., 
 J. E. Peralta, F. Ogliaro, M. Bearpark, J. J. Heyd, E. Brothers, 
 K. N. Kudin, V. N. Staroverov, T. Keith, R. Kobayashi, J. Normand, 
 K. Raghavachari, A. Rendell, J. C. Burant, S. S. Iyengar, J. Tomasi, 
 M. Cossi, N. Rega, J. M. Millam, M. Klene, J. E. Knox, J. B. Cross, 
 V. Bakken, C. Adamo, J. Jaramillo, R. Gomperts, R. E. Stratmann, 
 O. Yazyev, A. J. Austin, R. Cammi, C. Pomelli, J. W. Ochterski, 
 R. L. Martin, K. Morokuma, V. G. Zakrzewski, G. A. Voth, 
 P. Salvador, J. J. Dannenberg, S. Dapprich, A. D. Daniels, 
 O. Farkas, J. B. Foresman, J. V. Ortiz, J. Cioslowski, 
 and D. J. Fox, Gaussian, Inc., Wallingford CT, 2013.
 
 ******************************************
 Gaussian 09:  ES64L-G09RevD.01 24-Apr-2013
                18-May-2017 
 ******************************************
 %chk=ZnEt2.chk
 %nprocs=8
 Will use up to    8 processors via shared memory.
 %mem=2000mw
 ---------------------------------------------------
 # CCSD(T,maxcyc=100)/GEN gfinput geom=check scf=xqc
 ---------------------------------------------------
 1/29=2,38=1/1;
 2/12=2,40=1/2;
 3/5=7,11=9,14=-4,16=1,24=10,25=1,30=1/1,2,3;
 4//1;
 5/5=2,8=3,13=1,38=5/2,8;
 8/6=4,9=120000,10=1/1,4;
 9/5=7,6=100,14=2/13;
 6/7=2,8=2,9=2,10=2/1;
 99/5=1,9=1/99;
 -------------------------------------
 BEB step 6: CCSD(T) for neutral ZnEt2
 -------------------------------------
 Structure from the checkpoint file:  "ZnEt2.chk"
 Charge =  0 Multiplicity = 1
 Redundant internal coordinates found in file.
 Zn,0,0.,0.,0.092059
 C,0,0.,1.933945,0.090127
 C,0,1.360973,2.577345,-0.233751
 H,0,-0.346594,2.294125,1.069841
 H,0,-0.75069,2.294418,-0.628225
 H,0,1.311324,3.675407,-0.22301
 H,0,2.134924,2.28887,0.488877
 H,0,1.727459,2.287037,-1.226622
 C,0,0.,-1.933945,0.090127
 C,0,-1.360973,-2.577345,-0.233751
 H,0,0.346594,-2.294125,1.069841
 H,0,0.75069,-2.294418,-0.628225
 H,0,-1.311324,-3.675407,-0.22301
 H,0,-2.134924,-2.28887,0.488877
 H,0,-1.727459,-2.287037,-1.226622
 Recover connectivity data from disk.
                          Input orientation:                          
 ---------------------------------------------------------------------
 Center     Atomic      Atomic             Coordinates (Angstroms)
 Number     Number       Type             X           Y           Z
 ---------------------------------------------------------------------
      1         30           0        0.000000    0.000000    0.092059
      2          6           0        0.000000    1.933945    0.090127
      3          6           0        1.360973    2.577345   -0.233751
      4          1           0       -0.346594    2.294125    1.069841
      5          1           0       -0.750690    2.294418   -0.628225
      6          1           0        1.311324    3.675407   -0.223010
      7          1           0        2.134924    2.288870    0.488877
      8          1           0        1.727459    2.287037   -1.226622
      9          6           0        0.000000   -1.933945    0.090127
     10          6           0       -1.360973   -2.577345   -0.233751
     11          1           0        0.346594   -2.294125    1.069841
     12          1           0        0.750690   -2.294418   -0.628225
     13          1           0       -1.311324   -3.675407   -0.223010
     14          1           0       -2.134924   -2.288870    0.488877
     15          1           0       -1.727459   -2.287037   -1.226622
 ---------------------------------------------------------------------
                    Distance matrix (angstroms):
                    1          2          3          4          5
     1  Zn   0.000000
     2  C    1.933946   0.000000
     3  C    2.932764   1.539840   0.000000
     4  H    2.517776   1.099862   2.166876   0.000000
     5  H    2.519265   1.099775   2.166744   1.745486   0.000000
     6  H    3.915029   2.202343   1.099236   2.515571   2.514604
     7  H    3.155042   2.200653   1.097456   2.548623   3.094304
     8  H    3.154928   2.200595   1.097444   3.094429   2.549383
     9  C    1.933946   3.867890   4.723228   4.353911   4.354150
    10  C    2.932764   4.723228   5.829221   5.143883   4.925660
    11  H    2.517776   4.353911   5.143883   4.640318   5.014199
    12  H    2.519265   4.354150   4.925660   5.014199   4.828204
    13  H    3.915029   5.769095   6.799867   6.183646   6.009769
    14  H    3.155042   4.748586   6.035191   4.953735   4.916355
    15  H    3.154928   4.747066   5.846915   5.307313   4.722487
                    6          7          8          9         10
     6  H    0.000000
     7  H    1.762834   0.000000
     8  H    1.762945   1.763227   0.000000
     9  C    5.769095   4.748586   4.747066   0.000000
    10  C    6.799867   6.035191   5.846915   1.539840   0.000000
    11  H    6.183646   4.953735   5.307313   1.099862   2.166876
    12  H    6.009769   4.916355   4.722487   1.099775   2.166744
    13  H    7.804662   6.925028   6.766992   2.202343   1.099236
    14  H    6.925028   6.259976   6.228954   2.200653   1.097456
    15  H    6.766992   6.228954   5.732243   2.200595   1.097444
                   11         12         13         14         15
    11  H    0.000000
    12  H    1.745486   0.000000
    13  H    2.515571   2.514604   0.000000
    14  H    2.548623   3.094304   1.762834   0.000000
    15  H    3.094429   2.549383   1.762945   1.763227   0.000000
 Stoichiometry    C4H10Zn
 Framework group  C2[C2(Zn),X(C4H10)]
 Deg. of freedom    20
 Full point group                 C2      NOp   2
 Largest Abelian subgroup         C2      NOp   2
 Largest concise Abelian subgroup C2      NOp   2
                         Standard orientation:                         
 ---------------------------------------------------------------------
 Center     Atomic      Atomic             Coordinates (Angstroms)
 Number     Number       Type             X           Y           Z
 ---------------------------------------------------------------------
      1         30           0        0.000000    0.000000    0.092059
      2          6           0        0.000000    1.933945    0.090127
      3          6           0        1.360973    2.577345   -0.233751
      4          1           0       -0.346594    2.294125    1.069841
      5          1           0       -0.750690    2.294418   -0.628225
      6          1           0        1.311324    3.675407   -0.223010
      7          1           0        2.134924    2.288870    0.488877
      8          1           0        1.727459    2.287037   -1.226622
      9          6           0        0.000000   -1.933945    0.090127
     10          6           0       -1.360973   -2.577345   -0.233751
     11          1           0        0.346594   -2.294125    1.069841
     12          1           0        0.750690   -2.294418   -0.628225
     13          1           0       -1.311324   -3.675407   -0.223010
     14          1           0       -2.134924   -2.288870    0.488877
     15          1           0       -1.727459   -2.287037   -1.226622
 ---------------------------------------------------------------------
 Rotational constants (GHZ):     14.6723335      1.3797086      1.3187032
 General basis read from cards:  (5D, 7F)
 AO basis set in the form of general basis input (Overlap normalization):
      1 0
 S  14 1.00       0.000000000000
      0.5820021000D+07  0.8542885478D-05
      0.8715234000D+06  0.6642467562D-04
      0.1983350000D+06  0.3492362619D-03
      0.5617631000D+05  0.1472734312D-02
      0.1832582000D+05  0.5334339797D-02
      0.6614955000D+04  0.1711415094D-01
      0.2579199000D+04  0.4890302932D-01
      0.1068849000D+04  0.1216940687D+00
      0.4651045000D+03  0.2474323562D+00
      0.2104130000D+03  0.3578277267D+00
      0.9761629000D+02  0.2793442886D+00
      0.4438020000D+02  0.6868263222D-01
      0.1030891000D+02  0.3221701162D-02
      0.4553645000D+01 -0.7817474491D-03
 S  11 1.00       0.000000000000
      0.1832582000D+05 -0.6322839183D-05
      0.6614955000D+04 -0.6785222718D-04
      0.2579199000D+04 -0.5492543552D-03
      0.1068849000D+04 -0.3394157516D-02
      0.4651045000D+03 -0.1667671016D-01
      0.2104130000D+03 -0.5842591737D-01
      0.9761629000D+02 -0.1043750636D+00
      0.4438020000D+02  0.6355596026D-01
      0.2142308000D+02  0.5002009850D+00
      0.1030891000D+02  0.4781904256D+00
      0.4553645000D+01  0.8587611250D-01
 S  10 1.00       0.000000000000
      0.1832582000D+05 -0.8548270921D-06
      0.2579199000D+04 -0.1228626536D-04
      0.4651045000D+03 -0.1407868226D-03
      0.9761629000D+02 -0.4495773745D-03
      0.2142308000D+02 -0.6128804275D-02
      0.1030891000D+02  0.4154271565D-01
      0.4553645000D+01 -0.2894462579D+00
      0.2132821000D+01 -0.9361090165D-01
      0.9296970000D+00  0.1377489710D+01
      0.1921470000D+00 -0.1362868603D+01
 S   8 1.00       0.000000000000
      0.4651045000D+03 -0.7160119717D-05
      0.9761629000D+02 -0.2253209183D-04
      0.2142308000D+02 -0.1194939508D-02
      0.4553645000D+01 -0.1518081215D-01
      0.2132821000D+01  0.4513884670D-01
      0.9296970000D+00  0.2683958730D+00
      0.1921470000D+00 -0.4736441984D+00
      0.8759500000D-01 -0.6770952844D+00
 S  11 1.00       0.000000000000
      0.1832582000D+05  0.5609979057D-05
      0.6614955000D+04 -0.2573925820D-05
      0.2579199000D+04  0.7815859322D-04
      0.4651045000D+03  0.9576420082D-03
      0.2104130000D+03  0.7011261585D-03
      0.9761629000D+02  0.6552647950D-02
      0.4438020000D+02 -0.8815197364D-02
      0.2142308000D+02 -0.2453803490D-01
      0.1030891000D+02 -0.1203210329D+00
      0.4553645000D+01  0.1524538980D+00
      0.1921470000D+00  0.9781229693D+00
 S  11 1.00       0.000000000000
      0.1832582000D+05 -0.8564366277D-05
      0.6614955000D+04  0.3681138252D-05
      0.2579199000D+04 -0.1202612026D-03
      0.4651045000D+03 -0.1371070220D-02
      0.9761629000D+02 -0.5254556873D-02
      0.4438020000D+02  0.1268610915D-01
      0.2142308000D+02 -0.9696597388D-01
      0.1030891000D+02 -0.1771136145D+00
      0.4553645000D+01  0.1664222468D+00
      0.2132821000D+01  0.1003959530D+01
      0.1921470000D+00 -0.8141051538D+00
 S   1 1.00       0.000000000000
      0.3770200000D-01  0.1000000000D+01
 P  11 1.00       0.000000000000
      0.2441198000D+05  0.4105114657D-04
      0.5778518000D+04  0.3614546896D-03
      0.1876862000D+04  0.2090656696D-02
      0.7182361000D+03  0.9232712648D-02
      0.3048327000D+03  0.3281554506D-01
      0.1390453000D+03  0.9430366596D-01
      0.6680417000D+02  0.2094234333D+00
      0.3320699000D+02  0.3350550786D+00
      0.1692816000D+02  0.3308607794D+00
      0.8696229000D+01  0.1521709559D+00
      0.4350510000D+01  0.2172615146D-01
 P  10 1.00       0.000000000000
      0.5778518000D+04 -0.8877851708D-05
      0.7182361000D+03 -0.2441030315D-03
      0.3048327000D+03 -0.5407590074D-04
      0.1390453000D+03 -0.3043274181D-02
      0.6680417000D+02 -0.5430271958D-03
      0.3320699000D+02 -0.1903663998D-01
      0.1692816000D+02  0.2539021175D-01
      0.8696229000D+01 -0.3141338769D-01
      0.4350510000D+01 -0.2816228848D-01
      0.9953870000D+00  0.1020816268D+01
 P   9 1.00       0.000000000000
      0.7182361000D+03  0.2668890615D-05
      0.3048327000D+03 -0.3374783888D-05
      0.6680417000D+02 -0.1584306381D-03
      0.1692816000D+02  0.9899985402D-03
      0.4350510000D+01 -0.2699464774D-01
      0.2116523000D+01 -0.1249115445D-01
      0.9953870000D+00  0.7256894641D-01
      0.3781120000D+00  0.3829943468D+00
      0.1345790000D+00  0.6530286935D+00
 P   9 1.00       0.000000000000
      0.7182361000D+03  0.9390726746D-05
      0.3048327000D+03 -0.1185545227D-04
      0.6680417000D+02 -0.5108126233D-03
      0.1692816000D+02  0.3945575099D-02
      0.8696229000D+01  0.5580351718D-02
      0.4350510000D+01 -0.8244475427D-01
      0.2116523000D+01  0.9105007379D-02
      0.9953870000D+00  0.3337692793D+00
      0.3781120000D+00  0.7431532920D+00
 P  10 1.00       0.000000000000
      0.5778518000D+04 -0.7802763863D-05
      0.7182361000D+03 -0.1693919350D-03
      0.3048327000D+03  0.3159389680D-03
      0.6680417000D+02  0.1017184620D-01
      0.3320699000D+02  0.1254561776D-01
      0.1692816000D+02  0.5085111829D-01
      0.8696229000D+01 -0.1745632491D+00
      0.4350510000D+01 -0.5575487626D+00
      0.2116523000D+01 -0.6695223776D+00
      0.9953870000D+00  0.4927371878D+00
 P   1 1.00       0.000000000000
      0.4628200000D-01  0.1000000000D+01
 D   5 1.00       0.000000000000
      0.6144981000D+02 -0.1627069828D-02
      0.2305689000D+02 -0.5645739998D-02
      0.9577739000D+01 -0.7107323650D-01
      0.4133734000D+01  0.2883883047D+00
      0.1747518000D+01  0.8015717485D+00
 D   5 1.00       0.000000000000
      0.6144981000D+02 -0.9057168371D-03
      0.9577739000D+01 -0.2245656133D-01
      0.4133734000D+01  0.1050357490D+00
      0.1747518000D+01 -0.8282428294D-01
      0.6995600000D+00 -0.9692942320D+00
 D   5 1.00       0.000000000000
      0.2056177000D+03  0.4818927105D-02
      0.6144981000D+02  0.3917234290D-01
      0.2305689000D+02  0.1635410151D+00
      0.9577739000D+01  0.4643636076D+00
      0.4133734000D+01  0.4884185612D+00
 D   1 1.00       0.000000000000
      0.2516080000D+00  0.1000000000D+01
 F   1 1.00       0.000000000000
      0.5792200000D+01  0.1000000000D+01
 F   1 1.00       0.000000000000
      0.1485100000D+01  0.1000000000D+01
 G   1 1.00       0.000000000000
      0.4114400000D+01  0.1000000000D+01
 ****
      2 0
 S   7 1.00       0.000000000000
      0.8236000000D+04  0.5419783203D-03
      0.1235000000D+04  0.4192873817D-02
      0.2808000000D+03  0.2152216205D-01
      0.7927000000D+02  0.8353432195D-01
      0.2559000000D+02  0.2395828457D+00
      0.8997000000D+01  0.4428528419D+00
      0.3319000000D+01  0.3517995618D+00
 S   6 1.00       0.000000000000
      0.2808000000D+03 -0.5949224937D-04
      0.7927000000D+02 -0.1148158310D-02
      0.2559000000D+02 -0.1001913745D-01
      0.8997000000D+01 -0.6121949230D-01
      0.3319000000D+01 -0.1732698541D+00
      0.3643000000D+00  0.1072915192D+01
 S   1 1.00       0.000000000000
      0.9059000000D+00  0.1000000000D+01
 S   1 1.00       0.000000000000
      0.1285000000D+00  0.1000000000D+01
 P   3 1.00       0.000000000000
      0.1871000000D+02  0.3942638716D-01
      0.4133000000D+01  0.2440889849D+00
      0.1200000000D+01  0.8154920089D+00
 P   1 1.00       0.000000000000
      0.3827000000D+00  0.1000000000D+01
 P   1 1.00       0.000000000000
      0.1209000000D+00  0.1000000000D+01
 D   1 1.00       0.000000000000
      0.1097000000D+01  0.1000000000D+01
 D   1 1.00       0.000000000000
      0.3180000000D+00  0.1000000000D+01
 F   1 1.00       0.000000000000
      0.7610000000D+00  0.1000000000D+01
 ****
      3 0
 S   7 1.00       0.000000000000
      0.8236000000D+04  0.5419783203D-03
      0.1235000000D+04  0.4192873817D-02
      0.2808000000D+03  0.2152216205D-01
      0.7927000000D+02  0.8353432195D-01
      0.2559000000D+02  0.2395828457D+00
      0.8997000000D+01  0.4428528419D+00
      0.3319000000D+01  0.3517995618D+00
 S   6 1.00       0.000000000000
      0.2808000000D+03 -0.5949224937D-04
      0.7927000000D+02 -0.1148158310D-02
      0.2559000000D+02 -0.1001913745D-01
      0.8997000000D+01 -0.6121949230D-01
      0.3319000000D+01 -0.1732698541D+00
      0.3643000000D+00  0.1072915192D+01
 S   1 1.00       0.000000000000
      0.9059000000D+00  0.1000000000D+01
 S   1 1.00       0.000000000000
      0.1285000000D+00  0.1000000000D+01
 P   3 1.00       0.000000000000
      0.1871000000D+02  0.3942638716D-01
      0.4133000000D+01  0.2440889849D+00
      0.1200000000D+01  0.8154920089D+00
 P   1 1.00       0.000000000000
      0.3827000000D+00  0.1000000000D+01
 P   1 1.00       0.000000000000
      0.1209000000D+00  0.1000000000D+01
 D   1 1.00       0.000000000000
      0.1097000000D+01  0.1000000000D+01
 D   1 1.00       0.000000000000
      0.3180000000D+00  0.1000000000D+01
 F   1 1.00       0.000000000000
      0.7610000000D+00  0.1000000000D+01
 ****
      4 0
 S   3 1.00       0.000000000000
      0.3387000000D+02  0.2549486323D-01
      0.5095000000D+01  0.1903627659D+00
      0.1159000000D+01  0.8521620222D+00
 S   1 1.00       0.000000000000
      0.3258000000D+00  0.1000000000D+01
 S   1 1.00       0.000000000000
      0.1027000000D+00  0.1000000000D+01
 P   1 1.00       0.000000000000
      0.1407000000D+01  0.1000000000D+01
 P   1 1.00       0.000000000000
      0.3880000000D+00  0.1000000000D+01
 D   1 1.00       0.000000000000
      0.1057000000D+01  0.1000000000D+01
 ****
      5 0
 S   3 1.00       0.000000000000
      0.3387000000D+02  0.2549486323D-01
      0.5095000000D+01  0.1903627659D+00
      0.1159000000D+01  0.8521620222D+00
 S   1 1.00       0.000000000000
      0.3258000000D+00  0.1000000000D+01
 S   1 1.00       0.000000000000
      0.1027000000D+00  0.1000000000D+01
 P   1 1.00       0.000000000000
      0.1407000000D+01  0.1000000000D+01
 P   1 1.00       0.000000000000
      0.3880000000D+00  0.1000000000D+01
 D   1 1.00       0.000000000000
      0.1057000000D+01  0.1000000000D+01
 ****
      6 0
 S   3 1.00       0.000000000000
      0.3387000000D+02  0.2549486323D-01
      0.5095000000D+01  0.1903627659D+00
      0.1159000000D+01  0.8521620222D+00
 S   1 1.00       0.000000000000
      0.3258000000D+00  0.1000000000D+01
 S   1 1.00       0.000000000000
      0.1027000000D+00  0.1000000000D+01
 P   1 1.00       0.000000000000
      0.1407000000D+01  0.1000000000D+01
 P   1 1.00       0.000000000000
      0.3880000000D+00  0.1000000000D+01
 D   1 1.00       0.000000000000
      0.1057000000D+01  0.1000000000D+01
 ****
      7 0
 S   3 1.00       0.000000000000
      0.3387000000D+02  0.2549486323D-01
      0.5095000000D+01  0.1903627659D+00
      0.1159000000D+01  0.8521620222D+00
 S   1 1.00       0.000000000000
      0.3258000000D+00  0.1000000000D+01
 S   1 1.00       0.000000000000
      0.1027000000D+00  0.1000000000D+01
 P   1 1.00       0.000000000000
      0.1407000000D+01  0.1000000000D+01
 P   1 1.00       0.000000000000
      0.3880000000D+00  0.1000000000D+01
 D   1 1.00       0.000000000000
      0.1057000000D+01  0.1000000000D+01
 ****
      8 0
 S   3 1.00       0.000000000000
      0.3387000000D+02  0.2549486323D-01
      0.5095000000D+01  0.1903627659D+00
      0.1159000000D+01  0.8521620222D+00
 S   1 1.00       0.000000000000
      0.3258000000D+00  0.1000000000D+01
 S   1 1.00       0.000000000000
      0.1027000000D+00  0.1000000000D+01
 P   1 1.00       0.000000000000
      0.1407000000D+01  0.1000000000D+01
 P   1 1.00       0.000000000000
      0.3880000000D+00  0.1000000000D+01
 D   1 1.00       0.000000000000
      0.1057000000D+01  0.1000000000D+01
 ****
      9 0
 S   7 1.00       0.000000000000
      0.8236000000D+04  0.5419783203D-03
      0.1235000000D+04  0.4192873817D-02
      0.2808000000D+03  0.2152216205D-01
      0.7927000000D+02  0.8353432195D-01
      0.2559000000D+02  0.2395828457D+00
      0.8997000000D+01  0.4428528419D+00
      0.3319000000D+01  0.3517995618D+00
 S   6 1.00       0.000000000000
      0.2808000000D+03 -0.5949224937D-04
      0.7927000000D+02 -0.1148158310D-02
      0.2559000000D+02 -0.1001913745D-01
      0.8997000000D+01 -0.6121949230D-01
      0.3319000000D+01 -0.1732698541D+00
      0.3643000000D+00  0.1072915192D+01
 S   1 1.00       0.000000000000
      0.9059000000D+00  0.1000000000D+01
 S   1 1.00       0.000000000000
      0.1285000000D+00  0.1000000000D+01
 P   3 1.00       0.000000000000
      0.1871000000D+02  0.3942638716D-01
      0.4133000000D+01  0.2440889849D+00
      0.1200000000D+01  0.8154920089D+00
 P   1 1.00       0.000000000000
      0.3827000000D+00  0.1000000000D+01
 P   1 1.00       0.000000000000
      0.1209000000D+00  0.1000000000D+01
 D   1 1.00       0.000000000000
      0.1097000000D+01  0.1000000000D+01
 D   1 1.00       0.000000000000
      0.3180000000D+00  0.1000000000D+01
 F   1 1.00       0.000000000000
      0.7610000000D+00  0.1000000000D+01
 ****
     10 0
 S   7 1.00       0.000000000000
      0.8236000000D+04  0.5419783203D-03
      0.1235000000D+04  0.4192873817D-02
      0.2808000000D+03  0.2152216205D-01
      0.7927000000D+02  0.8353432195D-01
      0.2559000000D+02  0.2395828457D+00
      0.8997000000D+01  0.4428528419D+00
      0.3319000000D+01  0.3517995618D+00
 S   6 1.00       0.000000000000
      0.2808000000D+03 -0.5949224937D-04
      0.7927000000D+02 -0.1148158310D-02
      0.2559000000D+02 -0.1001913745D-01
      0.8997000000D+01 -0.6121949230D-01
      0.3319000000D+01 -0.1732698541D+00
      0.3643000000D+00  0.1072915192D+01
 S   1 1.00       0.000000000000
      0.9059000000D+00  0.1000000000D+01
 S   1 1.00       0.000000000000
      0.1285000000D+00  0.1000000000D+01
 P   3 1.00       0.000000000000
      0.1871000000D+02  0.3942638716D-01
      0.4133000000D+01  0.2440889849D+00
      0.1200000000D+01  0.8154920089D+00
 P   1 1.00       0.000000000000
      0.3827000000D+00  0.1000000000D+01
 P   1 1.00       0.000000000000
      0.1209000000D+00  0.1000000000D+01
 D   1 1.00       0.000000000000
      0.1097000000D+01  0.1000000000D+01
 D   1 1.00       0.000000000000
      0.3180000000D+00  0.1000000000D+01
 F   1 1.00       0.000000000000
      0.7610000000D+00  0.1000000000D+01
 ****
     11 0
 S   3 1.00       0.000000000000
      0.3387000000D+02  0.2549486323D-01
      0.5095000000D+01  0.1903627659D+00
      0.1159000000D+01  0.8521620222D+00
 S   1 1.00       0.000000000000
      0.3258000000D+00  0.1000000000D+01
 S   1 1.00       0.000000000000
      0.1027000000D+00  0.1000000000D+01
 P   1 1.00       0.000000000000
      0.1407000000D+01  0.1000000000D+01
 P   1 1.00       0.000000000000
      0.3880000000D+00  0.1000000000D+01
 D   1 1.00       0.000000000000
      0.1057000000D+01  0.1000000000D+01
 ****
     12 0
 S   3 1.00       0.000000000000
      0.3387000000D+02  0.2549486323D-01
      0.5095000000D+01  0.1903627659D+00
      0.1159000000D+01  0.8521620222D+00
 S   1 1.00       0.000000000000
      0.3258000000D+00  0.1000000000D+01
 S   1 1.00       0.000000000000
      0.1027000000D+00  0.1000000000D+01
 P   1 1.00       0.000000000000
      0.1407000000D+01  0.1000000000D+01
 P   1 1.00       0.000000000000
      0.3880000000D+00  0.1000000000D+01
 D   1 1.00       0.000000000000
      0.1057000000D+01  0.1000000000D+01
 ****
     13 0
 S   3 1.00       0.000000000000
      0.3387000000D+02  0.2549486323D-01
      0.5095000000D+01  0.1903627659D+00
      0.1159000000D+01  0.8521620222D+00
 S   1 1.00       0.000000000000
      0.3258000000D+00  0.1000000000D+01
 S   1 1.00       0.000000000000
      0.1027000000D+00  0.1000000000D+01
 P   1 1.00       0.000000000000
      0.1407000000D+01  0.1000000000D+01
 P   1 1.00       0.000000000000
      0.3880000000D+00  0.1000000000D+01
 D   1 1.00       0.000000000000
      0.1057000000D+01  0.1000000000D+01
 ****
     14 0
 S   3 1.00       0.000000000000
      0.3387000000D+02  0.2549486323D-01
      0.5095000000D+01  0.1903627659D+00
      0.1159000000D+01  0.8521620222D+00
 S   1 1.00       0.000000000000
      0.3258000000D+00  0.1000000000D+01
 S   1 1.00       0.000000000000
      0.1027000000D+00  0.1000000000D+01
 P   1 1.00       0.000000000000
      0.1407000000D+01  0.1000000000D+01
 P   1 1.00       0.000000000000
      0.3880000000D+00  0.1000000000D+01
 D   1 1.00       0.000000000000
      0.1057000000D+01  0.1000000000D+01
 ****
     15 0
 S   3 1.00       0.000000000000
      0.3387000000D+02  0.2549486323D-01
      0.5095000000D+01  0.1903627659D+00
      0.1159000000D+01  0.8521620222D+00
 S   1 1.00       0.000000000000
      0.3258000000D+00  0.1000000000D+01
 S   1 1.00       0.000000000000
      0.1027000000D+00  0.1000000000D+01
 P   1 1.00       0.000000000000
      0.1407000000D+01  0.1000000000D+01
 P   1 1.00       0.000000000000
      0.3880000000D+00  0.1000000000D+01
 D   1 1.00       0.000000000000
      0.1057000000D+01  0.1000000000D+01
 ****

 There are   191 symmetry adapted cartesian basis functions of A   symmetry.
 There are   183 symmetry adapted cartesian basis functions of B   symmetry.
 There are   166 symmetry adapted basis functions of A   symmetry.
 There are   162 symmetry adapted basis functions of B   symmetry.
   328 basis functions,   725 primitive gaussians,   374 cartesian basis functions
    32 alpha electrons       32 beta electrons
       nuclear repulsion energy       320.7392817687 Hartrees.
 NAtoms=   15 NActive=   15 NUniq=    8 SFac= 3.52D+00 NAtFMM=   60 NAOKFM=F Big=F
 Integral buffers will be    131072 words long.
 Raffenetti 1 integral format.
 Two-electron integral symmetry is turned on.
 One-electron integrals computed using PRISM.
 NBasis=   328 RedAO= T EigKep=  6.20D-04  NBF=   166   162
 NBsUse=   328 1.00D-06 EigRej= -1.00D+00 NBFU=   166   162
 ExpMin= 3.77D-02 ExpMax= 5.82D+06 ExpMxC= 6.61D+03 IAcc=3 IRadAn=         5 AccDes= 0.00D+00
 Harris functional with IExCor=  205 and IRadAn=       5 diagonalized for initial guess.
 HarFok:  IExCor=  205 AccDes= 0.00D+00 IRadAn=         5 IDoV= 1 UseB2=F ITyADJ=14
 ICtDFT=  3500011 ScaDFX=  1.000000  1.000000  1.000000  1.000000
 FoFCou: FMM=F IPFlag=           0 FMFlag=      100000 FMFlg1=           0
         NFxFlg=           0 DoJE=T BraDBF=F KetDBF=T FulRan=T
         wScrn=  0.000000 ICntrl=     500 IOpCl=  0 I1Cent=   200000004 NGrid=           0
         NMat0=    1 NMatS0=      1 NMatT0=    0 NMatD0=    1 NMtDS0=    0 NMtDT0=    0
 Petite list used in FoFCou.
 Initial guess orbital symmetries:
       Occupied  (A) (A) (B) (B) (A) (A) (B) (B) (A) (A) (B) (B)
                 (A) (A) (B) (A) (B) (B) (A) (A) (B) (A) (B) (B)
                 (A) (A) (A) (B) (A) (B) (B) (A)
       Virtual   (B) (A) (A) (B) (A) (A) (A) (B) (B) (A) (B) (B)
                 (B) (A) (A) (A) (B) (A) (B) (A) (B) (B) (A) (A)
                 (B) (B) (A) (B) (A) (A) (B) (B) (B) (A) (B) (A)
                 (B) (A) (B) (A) (A) (B) (A) (A) (B) (B) (A) (B)
                 (A) (B) (A) (A) (B) (A) (B) (A) (B) (B) (B) (A)
                 (A) (B) (A) (B) (A) (B) (B) (A) (A) (A) (B) (B)
                 (B) (A) (A) (B) (A) (B) (A) (B) (B) (A) (A) (A)
                 (B) (A) (B) (A) (A) (B) (B) (A) (B) (A) (A) (B)
                 (B) (A) (A) (B) (B) (A) (B) (A) (B) (B) (B) (A)
                 (A) (A) (B) (A) (B) (B) (A) (B) (A) (B) (A) (B)
                 (A) (A) (B) (B) (A) (A) (A) (B) (A) (B) (B) (B)
                 (A) (B) (A) (A) (A) (B) (A) (B) (B) (B) (A) (A)
                 (B) (A) (B) (B) (A) (B) (A) (B) (A) (A) (B) (B)
                 (A) (A) (B) (A) (A) (B) (B) (B) (A) (A) (B) (A)
                 (B) (A) (B) (A) (A) (A) (B) (B) (B) (A) (B) (B)
                 (A) (A) (B) (B) (A) (B) (A) (B) (A) (A) (B) (A)
                 (A) (B) (A) (B) (B) (A) (A) (B) (B) (B) (A) (A)
                 (B) (A) (A) (B) (B) (A) (B) (A) (A) (B) (B) (A)
                 (A) (B) (B) (A) (A) (B) (A) (B) (B) (A) (B) (A)
                 (B) (A) (B) (A) (B) (A) (B) (A) (A) (B) (B) (A)
                 (A) (B) (B) (A) (B) (A) (B) (A) (B) (A) (B) (A)
                 (B) (B) (A) (B) (A) (A) (B) (B) (A) (A) (B) (A)
                 (B) (A) (B) (A) (B) (B) (A) (B) (A) (B) (A) (A)
                 (A) (B) (B) (A) (A) (B) (B) (A) (A) (B) (B) (A)
                 (B) (B) (A) (A) (B) (B) (A) (A)
 The electronic state of the initial guess is 1-A.
 Requested convergence on RMS density matrix=1.00D-08 within  64 cycles.
 Requested convergence on MAX density matrix=1.00D-06.
 Requested convergence on             energy=1.00D-06.
 No special actions if energy rises.
 EnCoef did   100 forward-backward iterations
 Initial convergence to 1.0D-05 achieved.  Increase integral accuracy.
 SCF Done:  E(RHF) =  -1935.15666825     A.U. after   13 cycles
            NFock= 13  Conv=0.94D-08     -V/T= 2.0000
 QCSCF skips out because SCF is already converged.
 ExpMin= 3.77D-02 ExpMax= 5.82D+06 ExpMxC= 6.61D+03 IAcc=3 IRadAn=         5 AccDes= 0.00D+00
 HarFok:  IExCor=  205 AccDes= 0.00D+00 IRadAn=         5 IDoV=-2 UseB2=F ITyADJ=14
 ICtDFT= 12500011 ScaDFX=  1.000000  1.000000  1.000000  1.000000
 Range of M.O.s used for correlation:    14   328
 NBasis=   328 NAE=    32 NBE=    32 NFC=    13 NFV=     0
 NROrb=    315 NOA=    19 NOB=    19 NVA=   296 NVB=   296

 **** Warning!!: The largest alpha MO coefficient is  0.11019523D+02

 Semi-Direct transformation.
 ModeAB=           4 MOrb=            19 LenV=    2094314479
 LASXX=    142808310 LTotXX=   142808310 LenRXX=   286956382
 LTotAB=   144148072 MaxLAS=   199330425 LenRXY=           0
 NonZer=   429764692 LenScr=   647175168 LnRSAI=   199330425
 LnScr1=   300168192 LExtra=           0 Total=   1433630167
 MaxDsk=          -1 SrtSym=           T ITran=            4
 JobTyp=0 Pass  1:  I=   1 to  19.
 (rs|ai) integrals will be sorted in core.
 Spin components of T(2) and E(2):
     alpha-alpha T2 =       0.4166541083D-01 E2=     -0.1750910569D+00
     alpha-beta  T2 =       0.2339092285D+00 E2=     -0.9086823220D+00
     beta-beta   T2 =       0.4166541083D-01 E2=     -0.1750910569D+00
 ANorm=    0.1147710787D+01
 E2 =    -0.1258864436D+01 EUMP2 =    -0.19364155326846D+04
 Would need an additional        86502355 words for in-memory AO integral storage.
 Iterations= 100 Convergence= 0.100D-06
 Iteration Nr.   1
 **********************
 DD1Dir will call FoFJK   1 times, MxPair=       380
 NAB=   190 NAA=     0 NBB=     0 NumPrc=  8.
 FoFJK:  IHMeth= 1 ICntrl=     200 DoSepK=F KAlg= 0 I1Cent=   0 FoldK=F
 IRaf= 990000000 NMat= 380 IRICut=     475 DoRegI=T DoRafI=T ISym2E=-1.
 FoFCou: FMM=F IPFlag=           0 FMFlag=      100000 FMFlg1=           0
         NFxFlg=           0 DoJE=F BraDBF=F KetDBF=F FulRan=T
         wScrn=  0.000000 ICntrl=     200 IOpCl=  0 I1Cent=           0 NGrid=           0
         NMat0=  380 NMatS0=      0 NMatT0=  190 NMatD0=  380 NMtDS0=    0 NMtDT0=    0
 Petite list used in FoFCou.
 MP4(R+Q)=  0.17272215D-01
 E3=        0.25354872D-01        EUMP3=      -0.19363901778D+04
 E4(DQ)=   -0.21742895D-01        UMP4(DQ)=   -0.19364119207D+04
 E4(SDQ)=  -0.34534154D-01        UMP4(SDQ)=  -0.19364247120D+04
 DE(Corr)=  -1.2152442     E(Corr)=     -1936.3719125    
 NORM(A)=   0.11518805D+01
 Iteration Nr.   2
 **********************
 DD1Dir will call FoFJK   1 times, MxPair=       380
 NAB=   190 NAA=     0 NBB=     0 NumPrc=  8.
 DE(Corr)=  -1.2554240     E(CORR)=     -1936.4120923     Delta=-4.02D-02
 NORM(A)=   0.11619421D+01
 Iteration Nr.   3
 **********************
 DD1Dir will call FoFJK   1 times, MxPair=       380
 NAB=   190 NAA=     0 NBB=     0 NumPrc=  8.
 DE(Corr)=  -1.2517272     E(CORR)=     -1936.4083954     Delta= 3.70D-03
 NORM(A)=   0.11653440D+01
 Iteration Nr.   4
 **********************
 DD1Dir will call FoFJK   1 times, MxPair=       380
 NAB=   190 NAA=     0 NBB=     0 NumPrc=  8.
 DE(Corr)=  -1.2551812     E(CORR)=     -1936.4118495     Delta=-3.45D-03
 NORM(A)=   0.11663461D+01
 Iteration Nr.   5
 **********************
 DD1Dir will call FoFJK   1 times, MxPair=       380
 NAB=   190 NAA=     0 NBB=     0 NumPrc=  8.
 DE(Corr)=  -1.2556059     E(CORR)=     -1936.4122741     Delta=-4.25D-04
 NORM(A)=   0.11666528D+01
 Iteration Nr.   6
 **********************
 DD1Dir will call FoFJK   1 times, MxPair=       380
 NAB=   190 NAA=     0 NBB=     0 NumPrc=  8.
 DE(Corr)=  -1.2556502     E(CORR)=     -1936.4123184     Delta=-4.43D-05
 NORM(A)=   0.11667344D+01
 Iteration Nr.   7
 **********************
 DD1Dir will call FoFJK   1 times, MxPair=       380
 NAB=   190 NAA=     0 NBB=     0 NumPrc=  8.
 DE(Corr)=  -1.2556508     E(CORR)=     -1936.4123190     Delta=-5.99D-07
 NORM(A)=   0.11667393D+01
 Iteration Nr.   8
 **********************
 DD1Dir will call FoFJK   1 times, MxPair=       380
 NAB=   190 NAA=     0 NBB=     0 NumPrc=  8.
 DE(Corr)=  -1.2556576     E(CORR)=     -1936.4123258     Delta=-6.82D-06
 NORM(A)=   0.11667465D+01
 Iteration Nr.   9
 **********************
 DD1Dir will call FoFJK   1 times, MxPair=       380
 NAB=   190 NAA=     0 NBB=     0 NumPrc=  8.
 DE(Corr)=  -1.2556494     E(CORR)=     -1936.4123177     Delta= 8.16D-06
 NORM(A)=   0.11667474D+01
 Iteration Nr.  10
 **********************
 DD1Dir will call FoFJK   1 times, MxPair=       380
 NAB=   190 NAA=     0 NBB=     0 NumPrc=  8.
 DE(Corr)=  -1.2556529     E(CORR)=     -1936.4123211     Delta=-3.44D-06
 NORM(A)=   0.11667481D+01
 Iteration Nr.  11
 **********************
 DD1Dir will call FoFJK   1 times, MxPair=       380
 NAB=   190 NAA=     0 NBB=     0 NumPrc=  8.
 DE(Corr)=  -1.2556517     E(CORR)=     -1936.4123199     Delta= 1.19D-06
 NORM(A)=   0.11667485D+01
 Iteration Nr.  12
 **********************
 DD1Dir will call FoFJK   1 times, MxPair=       380
 NAB=   190 NAA=     0 NBB=     0 NumPrc=  8.
 DE(Corr)=  -1.2556523     E(CORR)=     -1936.4123205     Delta=-5.92D-07
 NORM(A)=   0.11667486D+01
 Iteration Nr.  13
 **********************
 DD1Dir will call FoFJK   1 times, MxPair=       380
 NAB=   190 NAA=     0 NBB=     0 NumPrc=  8.
 DE(Corr)=  -1.2556522     E(CORR)=     -1936.4123205     Delta= 1.66D-08
 NORM(A)=   0.11667487D+01
 Iteration Nr.  14
 **********************
 DD1Dir will call FoFJK   1 times, MxPair=       380
 NAB=   190 NAA=     0 NBB=     0 NumPrc=  8.
 DE(Corr)=  -1.2556523     E(CORR)=     -1936.4123205     Delta=-1.92D-08
 NORM(A)=   0.11667487D+01
 Largest amplitude= 2.57D-02
 Time for triples=    29663.45 seconds.
 T4(CCSD)= -0.49402079D-01
 T5(CCSD)=  0.26254402D-02
 CCSD(T)= -0.19364590972D+04
 Discarding MO integrals.

 **********************************************************************

            Population analysis using the SCF density.

 **********************************************************************

 Orbital symmetries:
       Occupied  (A) (A) (B) (A) (B) (A) (B) (B) (A) (A) (B) (A)
                 (B) (A) (B) (A) (B) (B) (A) (B) (A) (A) (A) (B)
                 (A) (B) (B) (A) (A) (B) (A) (B)
       Virtual   (A) (B) (A) (B) (A) (A) (B) (A) (B) (B) (B) (A)
                 (A) (A) (B) (A) (B) (A) (B) (A) (B) (B) (A) (A)
                 (B) (B) (A) (B) (A) (B) (A) (A) (B) (A) (B) (B)
                 (B) (A) (A) (B) (A) (B) (A) (A) (B) (A) (B) (B)
                 (A) (B) (A) (A) (A) (B) (B) (A) (B) (B) (A) (B)
                 (A) (B) (A) (B) (B) (A) (B) (A) (A) (B) (A) (B)
                 (B) (A) (A) (A) (B) (A) (B) (B) (B) (A) (A) (A)
                 (A) (B) (A) (B) (B) (A) (A) (B) (B) (A) (A) (B)
                 (B) (A) (A) (B) (B) (A) (B) (A) (B) (B) (A) (B)
                 (A) (A) (B) (B) (A) (A) (B) (A) (B) (B) (A) (A)
                 (B) (B) (A) (A) (B) (A) (B) (A) (B) (A) (B) (A)
                 (B) (B) (A) (A) (B) (A) (A) (B) (B) (A) (B) (B)
                 (A) (B) (A) (B) (A) (B) (A) (B) (A) (A) (B) (B)
                 (A) (B) (A) (A) (A) (B) (B) (B) (A) (A) (B) (A)
                 (B) (A) (B) (A) (A) (A) (B) (B) (B) (A) (B) (A)
                 (B) (B) (A) (A) (B) (A) (B) (B) (B) (A) (A) (A)
                 (B) (A) (B) (A) (A) (B) (B) (B) (A) (A) (B) (A)
                 (A) (B) (B) (A) (A) (B) (B) (A) (B) (A) (B) (A)
                 (A) (B) (A) (B) (A) (B) (A) (B) (A) (B) (B) (A)
                 (B) (A) (B) (B) (A) (A) (A) (A) (B) (B) (B) (A)
                 (A) (B) (B) (B) (A) (A) (B) (A) (A) (B) (B) (A)
                 (B) (B) (A) (B) (A) (A) (B) (B) (A) (A) (B) (A)
                 (B) (A) (B) (A) (B) (B) (A) (B) (A) (B) (A) (A)
                 (A) (B) (B) (A) (A) (B) (B) (A) (A) (B) (B) (A)
                 (B) (B) (A) (A) (B) (A) (B) (A)
 The electronic state is 1-A.
 Alpha  occ. eigenvalues -- -353.29735 -44.36066 -38.92536 -38.92524 -38.92111
 Alpha  occ. eigenvalues --  -11.20919 -11.20919 -11.18637 -11.18636  -5.63575
 Alpha  occ. eigenvalues --   -3.84001  -3.83979  -3.83647  -0.99493  -0.99015
 Alpha  occ. eigenvalues --   -0.83246  -0.80837  -0.78667  -0.78653  -0.78314
 Alpha  occ. eigenvalues --   -0.78209  -0.75093  -0.58090  -0.57663  -0.55782
 Alpha  occ. eigenvalues --   -0.55603  -0.49037  -0.48726  -0.47206  -0.46832
 Alpha  occ. eigenvalues --   -0.39970  -0.33929
 Alpha virt. eigenvalues --    0.07877   0.08077   0.08289   0.14864   0.18201
 Alpha virt. eigenvalues --    0.20423   0.20906   0.21064   0.21509   0.22077
 Alpha virt. eigenvalues --    0.23715   0.25169   0.26164   0.27076   0.29497
 Alpha virt. eigenvalues --    0.32117   0.33653   0.35638   0.37263   0.39986
 Alpha virt. eigenvalues --    0.40299   0.41428   0.41823   0.43365   0.44459
 Alpha virt. eigenvalues --    0.48100   0.51292   0.57095   0.58680   0.61431
 Alpha virt. eigenvalues --    0.61797   0.62238   0.62684   0.64525   0.64589
 Alpha virt. eigenvalues --    0.65508   0.66937   0.67113   0.68586   0.68768
 Alpha virt. eigenvalues --    0.69373   0.69786   0.72950   0.73407   0.75752
 Alpha virt. eigenvalues --    0.77233   0.78210   0.81849   0.82509   0.88728
 Alpha virt. eigenvalues --    0.91160   0.93598   0.96878   0.97675   0.98596
 Alpha virt. eigenvalues --    1.00968   1.05179   1.08240   1.08477   1.09514
 Alpha virt. eigenvalues --    1.11115   1.13039   1.16631   1.18355   1.19085
 Alpha virt. eigenvalues --    1.19172   1.25040   1.25737   1.27611   1.28816
 Alpha virt. eigenvalues --    1.30237   1.30593   1.30943   1.32251   1.33641
 Alpha virt. eigenvalues --    1.36752   1.37134   1.37672   1.37925   1.38924
 Alpha virt. eigenvalues --    1.40488   1.41424   1.45855   1.48332   1.51604
 Alpha virt. eigenvalues --    1.51955   1.52969   1.53157   1.53675   1.55852
 Alpha virt. eigenvalues --    1.58291   1.58570   1.58936   1.60827   1.65489
 Alpha virt. eigenvalues --    1.66630   1.68255   1.73468   1.74338   1.76710
 Alpha virt. eigenvalues --    1.78582   1.80908   1.83339   1.93171   1.95651
 Alpha virt. eigenvalues --    2.50308   2.52271   2.55932   2.57107   2.63597
 Alpha virt. eigenvalues --    2.67153   2.69042   2.69185   2.70673   2.71222
 Alpha virt. eigenvalues --    2.76497   2.81240   2.82998   2.85026   2.87987
 Alpha virt. eigenvalues --    2.88746   2.91266   2.94015   2.95654   2.95879
 Alpha virt. eigenvalues --    3.02771   3.03868   3.06619   3.09341   3.09788
 Alpha virt. eigenvalues --    3.11050   3.11805   3.12464   3.13449   3.15100
 Alpha virt. eigenvalues --    3.16743   3.18082   3.18382   3.22125   3.23610
 Alpha virt. eigenvalues --    3.24662   3.28448   3.28639   3.31571   3.31586
 Alpha virt. eigenvalues --    3.33472   3.34379   3.35573   3.37960   3.40827
 Alpha virt. eigenvalues --    3.41674   3.42262   3.43228   3.44566   3.47943
 Alpha virt. eigenvalues --    3.49774   3.52452   3.53782   3.55037   3.58858
 Alpha virt. eigenvalues --    3.59891   3.60586   3.62035   3.63610   3.65167
 Alpha virt. eigenvalues --    3.65976   3.66043   3.71870   3.76162   3.76627
 Alpha virt. eigenvalues --    3.78307   3.78428   3.79506   3.82709   3.83066
 Alpha virt. eigenvalues --    3.83757   3.87445   3.89546   3.92010   3.99209
 Alpha virt. eigenvalues --    4.00766   4.02358   4.03710   4.08556   4.09317
 Alpha virt. eigenvalues --    4.11125   4.11769   4.13711   4.15588   4.16249
 Alpha virt. eigenvalues --    4.18823   4.19381   4.20768   4.21529   4.22959
 Alpha virt. eigenvalues --    4.25552   4.31386   4.34288   4.34404   4.35573
 Alpha virt. eigenvalues --    4.35915   4.41991   4.42071   4.42390   4.43091
 Alpha virt. eigenvalues --    4.43175   4.43403   4.44920   4.45995   4.47289
 Alpha virt. eigenvalues --    4.49805   4.51043   4.51177   4.55329   4.58702
 Alpha virt. eigenvalues --    4.59837   4.60505   4.60621   4.64832   4.68056
 Alpha virt. eigenvalues --    4.69194   4.69523   4.70936   4.70990   4.77350
 Alpha virt. eigenvalues --    4.79632   4.86007   4.94348   4.99637   4.99674
 Alpha virt. eigenvalues --    5.04348   5.05202   5.05490   5.11408   5.16775
 Alpha virt. eigenvalues --    5.16939   5.16996   5.17873   5.19540   5.23853
 Alpha virt. eigenvalues --    5.24815   5.24868   5.27492   5.32718   5.33606
 Alpha virt. eigenvalues --    5.34574   5.44415   5.47460   5.54632   5.55429
 Alpha virt. eigenvalues --    5.56536   5.58605   5.61849   5.66602   5.67369
 Alpha virt. eigenvalues --    5.70541   5.70621   5.72419   5.73879   5.74981
 Alpha virt. eigenvalues --    5.76921   5.79641   5.80744   5.85717   5.86954
 Alpha virt. eigenvalues --    6.28834   6.29158   6.30115   6.30620   6.33505
 Alpha virt. eigenvalues --    6.36838  10.92202  10.94638  11.20649  11.24263
 Alpha virt. eigenvalues --   11.69047  12.23703  12.33375  13.78000  13.80824
 Alpha virt. eigenvalues --   16.24031  16.24046  16.26410  16.26811  16.33179
 Alpha virt. eigenvalues --   16.33589  16.47119  16.92607  16.92607  16.93295
 Alpha virt. eigenvalues --   16.93296  16.93854  16.93887  16.94591  16.94606
 Alpha virt. eigenvalues --   16.95668
          Condensed to atoms (all electrons):
               1          2          3          4          5          6
     1  Zn  28.656157   0.355753  -0.036014  -0.023694  -0.022991   0.011226
     2  C    0.355753   5.221084   0.307303   0.406713   0.407217  -0.040206
     3  C   -0.036014   0.307303   4.830466  -0.038669  -0.038694   0.421813
     4  H   -0.023694   0.406713  -0.038669   0.612372  -0.036444  -0.009298
     5  H   -0.022991   0.407217  -0.038694  -0.036444   0.610384  -0.009303
     6  H    0.011226  -0.040206   0.421813  -0.009298  -0.009303   0.602451
     7  H   -0.006019  -0.039446   0.418089  -0.003550   0.007538  -0.037282
     8  H   -0.006103  -0.039858   0.417928   0.007638  -0.003550  -0.037195
     9  C    0.355753  -0.031454   0.001173   0.000993   0.000911  -0.000087
    10  C   -0.036014   0.001173  -0.000037  -0.000046  -0.000085   0.000001
    11  H   -0.023694   0.000993  -0.000046  -0.000099   0.000019   0.000003
    12  H   -0.022991   0.000911  -0.000085   0.000019  -0.000034   0.000006
    13  H    0.011226  -0.000087   0.000001   0.000003   0.000006   0.000000
    14  H   -0.006019   0.000217  -0.000004   0.000007  -0.000015   0.000000
    15  H   -0.006103   0.000239  -0.000003  -0.000013   0.000011   0.000000
               7          8          9         10         11         12
     1  Zn  -0.006019  -0.006103   0.355753  -0.036014  -0.023694  -0.022991
     2  C   -0.039446  -0.039858  -0.031454   0.001173   0.000993   0.000911
     3  C    0.418089   0.417928   0.001173  -0.000037  -0.000046  -0.000085
     4  H   -0.003550   0.007638   0.000993  -0.000046  -0.000099   0.000019
     5  H    0.007538  -0.003550   0.000911  -0.000085   0.000019  -0.000034
     6  H   -0.037282  -0.037195  -0.000087   0.000001   0.000003   0.000006
     7  H    0.614652  -0.037721   0.000217  -0.000004   0.000007  -0.000015
     8  H   -0.037721   0.615120   0.000239  -0.000003  -0.000013   0.000011
     9  C    0.000217   0.000239   5.221084   0.307303   0.406713   0.407217
    10  C   -0.000004  -0.000003   0.307303   4.830466  -0.038669  -0.038694
    11  H    0.000007  -0.000013   0.406713  -0.038669   0.612372  -0.036444
    12  H   -0.000015   0.000011   0.407217  -0.038694  -0.036444   0.610384
    13  H    0.000000   0.000000  -0.040206   0.421813  -0.009298  -0.009303
    14  H    0.000000   0.000000  -0.039446   0.418089  -0.003550   0.007538
    15  H    0.000000  -0.000003  -0.039858   0.417928   0.007638  -0.003550
              13         14         15
     1  Zn   0.011226  -0.006019  -0.006103
     2  C   -0.000087   0.000217   0.000239
     3  C    0.000001  -0.000004  -0.000003
     4  H    0.000003   0.000007  -0.000013
     5  H    0.000006  -0.000015   0.000011
     6  H    0.000000   0.000000   0.000000
     7  H    0.000000   0.000000   0.000000
     8  H    0.000000   0.000000  -0.000003
     9  C   -0.040206  -0.039446  -0.039858
    10  C    0.421813   0.418089   0.417928
    11  H   -0.009298  -0.003550   0.007638
    12  H   -0.009303   0.007538  -0.003550
    13  H    0.602451  -0.037282  -0.037195
    14  H   -0.037282   0.614652  -0.037721
    15  H   -0.037195  -0.037721   0.615120
 Mulliken charges:
               1
     1  Zn   0.799527
     2  C   -0.550554
     3  C   -0.283220
     4  H    0.084069
     5  H    0.085029
     6  H    0.097870
     7  H    0.083534
     8  H    0.083509
     9  C   -0.550554
    10  C   -0.283220
    11  H    0.084069
    12  H    0.085029
    13  H    0.097870
    14  H    0.083534
    15  H    0.083509
 Sum of Mulliken charges =   0.00000
 Mulliken charges with hydrogens summed into heavy atoms:
               1
     1  Zn   0.799527
     2  C   -0.381455
     3  C   -0.018308
     9  C   -0.381455
    10  C   -0.018308
 Electronic spatial extent (au):  <R**2>=            968.2959
 Charge=              0.0000 electrons
 Dipole moment (field-independent basis, Debye):
    X=              0.0000    Y=              0.0000    Z=              0.0734  Tot=              0.0734
 Quadrupole moment (field-independent basis, Debye-Ang):
   XX=            -42.5650   YY=            -49.7939   ZZ=            -40.9558
   XY=             -1.1688   XZ=              0.0000   YZ=              0.0000
 Traceless Quadrupole moment (field-independent basis, Debye-Ang):
   XX=              1.8732   YY=             -5.3556   ZZ=              3.4824
   XY=             -1.1688   XZ=              0.0000   YZ=              0.0000
 Octapole moment (field-independent basis, Debye-Ang**2):
  XXX=              0.0000  YYY=              0.0000  ZZZ=              3.6119  XYY=              0.0000
  XXY=              0.0000  XXZ=              2.0398  XZZ=              0.0000  YZZ=              0.0000
  YYZ=              1.4148  XYZ=              1.0934
 Hexadecapole moment (field-independent basis, Debye-Ang**3):
 XXXX=           -267.6928 YYYY=          -1085.8738 ZZZZ=            -78.0987 XXXY=           -175.6363
 XXXZ=              0.0000 YYYX=           -177.7817 YYYZ=              0.0000 ZZZX=              0.0000
 ZZZY=              0.0000 XXYY=           -234.4105 XXZZ=            -54.9516 YYZZ=           -190.5378
 XXYZ=              0.0000 YYXZ=              0.0000 ZZXY=            -56.1666
 N-N= 3.207392817687D+02 E-N=-5.269258837336D+03  KE= 1.935099960865D+03
 Symmetry A    KE= 1.416975839041D+03
 Symmetry B    KE= 5.181241218247D+02
 1\1\GINC-GAMBA\SP\RCCSD(T)-FC\Gen\C4H10Zn1\IRIKURA\18-May-2017\0\\# CC
 SD(T,maxcyc=100)/GEN gfinput geom=check scf=xqc\\BEB step 6: CCSD(T) f
 or neutral ZnEt2\\0,1\Zn,0,0.,0.,0.092059\C,0,0.,1.933945,0.090127\C,0
 ,1.360973,2.577345,-0.233751\H,0,-0.346594,2.294125,1.069841\H,0,-0.75
 069,2.294418,-0.628225\H,0,1.311324,3.675407,-0.22301\H,0,2.134924,2.2
 8887,0.488877\H,0,1.727459,2.287037,-1.226622\C,0,0.,-1.933945,0.09012
 7\C,0,-1.360973,-2.577345,-0.233751\H,0,0.346594,-2.294125,1.069841\H,
 0,0.75069,-2.294418,-0.628225\H,0,-1.311324,-3.675407,-0.22301\H,0,-2.
 134924,-2.28887,0.488877\H,0,-1.727459,-2.287037,-1.226622\\Version=ES
 64L-G09RevD.01\State=1-A\HF=-1935.1566682\MP2=-1936.4155327\MP3=-1936.
 3901778\MP4D=-1936.4291929\MP4DQ=-1936.4119207\MP4SDQ=-1936.424712\CCS
 D=-1936.4123205\CCSD(T)=-1936.4590972\RMSD=9.416e-09\PG=C02 [C2(Zn1),X
 (C4H10)]\\@


 IN SO FAR AS QUANTUM MECHANICS IS CORRECT, CHEMICAL 
 QUESTIONS ARE PROBLEMS IN APPLIED MATHEMATICS.

                    -- EYRING, WALTER, & KIMBALL, 1944
 Job cpu time:       0 days 12 hours 57 minutes  3.2 seconds.
 File lengths (MBytes):  RWF=  12744 Int=      0 D2E=      0 Chk=      8 Scr=      1
 Normal termination of Gaussian 09 at Thu May 18 13:19:39 2017.
