 Entering Gaussian System, Link 0=g09
 Initial command:
 /usr/local/apps/g09/l1.exe "/wrk/irikura/Gau-18814.inp" -scrdir="/wrk/irikura/"
 Entering Link 1 = /usr/local/apps/g09/l1.exe PID=     18816.
  
 Copyright (c) 1988,1990,1992,1993,1995,1998,2003,2009,2013,
            Gaussian, Inc.  All Rights Reserved.
  
 This is part of the Gaussian(R) 09 program.  It is based on
 the Gaussian(R) 03 system (copyright 2003, Gaussian, Inc.),
 the Gaussian(R) 98 system (copyright 1998, Gaussian, Inc.),
 the Gaussian(R) 94 system (copyright 1995, Gaussian, Inc.),
 the Gaussian 92(TM) system (copyright 1992, Gaussian, Inc.),
 the Gaussian 90(TM) system (copyright 1990, Gaussian, Inc.),
 the Gaussian 88(TM) system (copyright 1988, Gaussian, Inc.),
 the Gaussian 86(TM) system (copyright 1986, Carnegie Mellon
 University), and the Gaussian 82(TM) system (copyright 1983,
 Carnegie Mellon University). Gaussian is a federally registered
 trademark of Gaussian, Inc.
  
 This software contains proprietary and confidential information,
 including trade secrets, belonging to Gaussian, Inc.
  
 This software is provided under written license and may be
 used, copied, transmitted, or stored only in accord with that
 written license.
  
 The following legend is applicable only to US Government
 contracts under FAR:
  
                    RESTRICTED RIGHTS LEGEND
  
 Use, reproduction and disclosure by the US Government is
 subject to restrictions as set forth in subparagraphs (a)
 and (c) of the Commercial Computer Software - Restricted
 Rights clause in FAR 52.227-19.
  
 Gaussian, Inc.
 340 Quinnipiac St., Bldg. 40, Wallingford CT 06492
  
  
 ---------------------------------------------------------------
 Warning -- This program may not be used in any manner that
 competes with the business of Gaussian, Inc. or will provide
 assistance to any competitor of Gaussian, Inc.  The licensee
 of this program is prohibited from giving any competitor of
 Gaussian, Inc. access to this program.  By using this program,
 the user acknowledges that Gaussian, Inc. is engaged in the
 business of creating and licensing software in the field of
 computational chemistry and represents and warrants to the
 licensee that it is not a competitor of Gaussian, Inc. and that
 it will not use this program in any manner prohibited above.
 ---------------------------------------------------------------
  

 Cite this work as:
 Gaussian 09, Revision D.01,
 M. J. Frisch, G. W. Trucks, H. B. Schlegel, G. E. Scuseria, 
 M. A. Robb, J. R. Cheeseman, G. Scalmani, V. Barone, B. Mennucci, 
 G. A. Petersson, H. Nakatsuji, M. Caricato, X. Li, H. P. Hratchian, 
 A. F. Izmaylov, J. Bloino, G. Zheng, J. L. Sonnenberg, M. Hada, 
 M. Ehara, K. Toyota, R. Fukuda, J. Hasegawa, M. Ishida, T. Nakajima, 
 Y. Honda, O. Kitao, H. Nakai, T. Vreven, J. A. Montgomery, Jr., 
 J. E. Peralta, F. Ogliaro, M. Bearpark, J. J. Heyd, E. Brothers, 
 K. N. Kudin, V. N. Staroverov, T. Keith, R. Kobayashi, J. Normand, 
 K. Raghavachari, A. Rendell, J. C. Burant, S. S. Iyengar, J. Tomasi, 
 M. Cossi, N. Rega, J. M. Millam, M. Klene, J. E. Knox, J. B. Cross, 
 V. Bakken, C. Adamo, J. Jaramillo, R. Gomperts, R. E. Stratmann, 
 O. Yazyev, A. J. Austin, R. Cammi, C. Pomelli, J. W. Ochterski, 
 R. L. Martin, K. Morokuma, V. G. Zakrzewski, G. A. Voth, 
 P. Salvador, J. J. Dannenberg, S. Dapprich, A. D. Daniels, 
 O. Farkas, J. B. Foresman, J. V. Ortiz, J. Cioslowski, 
 and D. J. Fox, Gaussian, Inc., Wallingford CT, 2013.
 
 ******************************************
 Gaussian 09:  ES64L-G09RevD.01 24-Apr-2013
                18-May-2017 
 ******************************************
 %chk=ZnEt2.chk
 %nprocs=8
 Will use up to    8 processors via shared memory.
 %mem=2000mw
 ---------------------------------------------------------------
 # CCSD(T,maxcyc=100)/GEN gfinput geom=check scf=xqc guess=check
 ---------------------------------------------------------------
 1/29=2,38=1/1;
 2/12=2,40=1/2;
 3/5=7,11=9,14=-4,16=1,24=10,25=1,30=1,116=-2/1,2,3;
 4/5=1/1;
 5/5=2,8=3,13=1,38=6/2,8;
 8/6=4,9=120000,10=1/1,4;
 9/5=7,6=100,14=2/13;
 6/7=2,8=2,9=2,10=2/1;
 99/5=1,9=1/99;
 -------------------------------------------------
 BEB step 7: high-spin CCSD(T) for cation of ZnEt2
 -------------------------------------------------
 Structure from the checkpoint file:  "ZnEt2.chk"
 Charge =  1 Multiplicity = 4
 Redundant internal coordinates found in file.
 Zn,0,0.,0.,0.092059
 C,0,0.,1.933945,0.090127
 C,0,1.360973,2.577345,-0.233751
 H,0,-0.346594,2.294125,1.069841
 H,0,-0.75069,2.294418,-0.628225
 H,0,1.311324,3.675407,-0.22301
 H,0,2.134924,2.28887,0.488877
 H,0,1.727459,2.287037,-1.226622
 C,0,0.,-1.933945,0.090127
 C,0,-1.360973,-2.577345,-0.233751
 H,0,0.346594,-2.294125,1.069841
 H,0,0.75069,-2.294418,-0.628225
 H,0,-1.311324,-3.675407,-0.22301
 H,0,-2.134924,-2.28887,0.488877
 H,0,-1.727459,-2.287037,-1.226622
 Recover connectivity data from disk.
                          Input orientation:                          
 ---------------------------------------------------------------------
 Center     Atomic      Atomic             Coordinates (Angstroms)
 Number     Number       Type             X           Y           Z
 ---------------------------------------------------------------------
      1         30           0        0.000000    0.000000    0.092059
      2          6           0        0.000000    1.933945    0.090127
      3          6           0        1.360973    2.577345   -0.233751
      4          1           0       -0.346594    2.294125    1.069841
      5          1           0       -0.750690    2.294418   -0.628225
      6          1           0        1.311324    3.675407   -0.223010
      7          1           0        2.134924    2.288870    0.488877
      8          1           0        1.727459    2.287037   -1.226622
      9          6           0        0.000000   -1.933945    0.090127
     10          6           0       -1.360973   -2.577345   -0.233751
     11          1           0        0.346594   -2.294125    1.069841
     12          1           0        0.750690   -2.294418   -0.628225
     13          1           0       -1.311324   -3.675407   -0.223010
     14          1           0       -2.134924   -2.288870    0.488877
     15          1           0       -1.727459   -2.287037   -1.226622
 ---------------------------------------------------------------------
                    Distance matrix (angstroms):
                    1          2          3          4          5
     1  Zn   0.000000
     2  C    1.933946   0.000000
     3  C    2.932764   1.539840   0.000000
     4  H    2.517776   1.099862   2.166876   0.000000
     5  H    2.519265   1.099775   2.166744   1.745486   0.000000
     6  H    3.915029   2.202343   1.099236   2.515571   2.514604
     7  H    3.155042   2.200653   1.097456   2.548623   3.094304
     8  H    3.154928   2.200595   1.097444   3.094429   2.549383
     9  C    1.933946   3.867890   4.723228   4.353911   4.354150
    10  C    2.932764   4.723228   5.829221   5.143883   4.925660
    11  H    2.517776   4.353911   5.143883   4.640318   5.014199
    12  H    2.519265   4.354150   4.925660   5.014199   4.828204
    13  H    3.915029   5.769095   6.799867   6.183646   6.009769
    14  H    3.155042   4.748586   6.035191   4.953735   4.916355
    15  H    3.154928   4.747066   5.846915   5.307313   4.722487
                    6          7          8          9         10
     6  H    0.000000
     7  H    1.762834   0.000000
     8  H    1.762945   1.763227   0.000000
     9  C    5.769095   4.748586   4.747066   0.000000
    10  C    6.799867   6.035191   5.846915   1.539840   0.000000
    11  H    6.183646   4.953735   5.307313   1.099862   2.166876
    12  H    6.009769   4.916355   4.722487   1.099775   2.166744
    13  H    7.804662   6.925028   6.766992   2.202343   1.099236
    14  H    6.925028   6.259976   6.228954   2.200653   1.097456
    15  H    6.766992   6.228954   5.732243   2.200595   1.097444
                   11         12         13         14         15
    11  H    0.000000
    12  H    1.745486   0.000000
    13  H    2.515571   2.514604   0.000000
    14  H    2.548623   3.094304   1.762834   0.000000
    15  H    3.094429   2.549383   1.762945   1.763227   0.000000
 Stoichiometry    C4H10Zn(1+,4)
 Framework group  C2[C2(Zn),X(C4H10)]
 Deg. of freedom    20
 Full point group                 C2      NOp   2
 Largest Abelian subgroup         C2      NOp   2
 Largest concise Abelian subgroup C2      NOp   2
                         Standard orientation:                         
 ---------------------------------------------------------------------
 Center     Atomic      Atomic             Coordinates (Angstroms)
 Number     Number       Type             X           Y           Z
 ---------------------------------------------------------------------
      1         30           0        0.000000    0.000000    0.092059
      2          6           0        0.000000    1.933945    0.090127
      3          6           0        1.360973    2.577345   -0.233751
      4          1           0       -0.346594    2.294125    1.069841
      5          1           0       -0.750690    2.294418   -0.628225
      6          1           0        1.311324    3.675407   -0.223010
      7          1           0        2.134924    2.288870    0.488877
      8          1           0        1.727459    2.287037   -1.226622
      9          6           0        0.000000   -1.933945    0.090127
     10          6           0       -1.360973   -2.577345   -0.233751
     11          1           0        0.346594   -2.294125    1.069841
     12          1           0        0.750690   -2.294418   -0.628225
     13          1           0       -1.311324   -3.675407   -0.223010
     14          1           0       -2.134924   -2.288870    0.488877
     15          1           0       -1.727459   -2.287037   -1.226622
 ---------------------------------------------------------------------
 Rotational constants (GHZ):     14.6723335      1.3797086      1.3187032
 General basis read from cards:  (5D, 7F)
 AO basis set in the form of general basis input (Overlap normalization):
      1 0
 S  14 1.00       0.000000000000
      0.5820021000D+07  0.8542885478D-05
      0.8715234000D+06  0.6642467562D-04
      0.1983350000D+06  0.3492362619D-03
      0.5617631000D+05  0.1472734312D-02
      0.1832582000D+05  0.5334339797D-02
      0.6614955000D+04  0.1711415094D-01
      0.2579199000D+04  0.4890302932D-01
      0.1068849000D+04  0.1216940687D+00
      0.4651045000D+03  0.2474323562D+00
      0.2104130000D+03  0.3578277267D+00
      0.9761629000D+02  0.2793442886D+00
      0.4438020000D+02  0.6868263222D-01
      0.1030891000D+02  0.3221701162D-02
      0.4553645000D+01 -0.7817474491D-03
 S  11 1.00       0.000000000000
      0.1832582000D+05 -0.6322839183D-05
      0.6614955000D+04 -0.6785222718D-04
      0.2579199000D+04 -0.5492543552D-03
      0.1068849000D+04 -0.3394157516D-02
      0.4651045000D+03 -0.1667671016D-01
      0.2104130000D+03 -0.5842591737D-01
      0.9761629000D+02 -0.1043750636D+00
      0.4438020000D+02  0.6355596026D-01
      0.2142308000D+02  0.5002009850D+00
      0.1030891000D+02  0.4781904256D+00
      0.4553645000D+01  0.8587611250D-01
 S  10 1.00       0.000000000000
      0.1832582000D+05 -0.8548270921D-06
      0.2579199000D+04 -0.1228626536D-04
      0.4651045000D+03 -0.1407868226D-03
      0.9761629000D+02 -0.4495773745D-03
      0.2142308000D+02 -0.6128804275D-02
      0.1030891000D+02  0.4154271565D-01
      0.4553645000D+01 -0.2894462579D+00
      0.2132821000D+01 -0.9361090165D-01
      0.9296970000D+00  0.1377489710D+01
      0.1921470000D+00 -0.1362868603D+01
 S   8 1.00       0.000000000000
      0.4651045000D+03 -0.7160119717D-05
      0.9761629000D+02 -0.2253209183D-04
      0.2142308000D+02 -0.1194939508D-02
      0.4553645000D+01 -0.1518081215D-01
      0.2132821000D+01  0.4513884670D-01
      0.9296970000D+00  0.2683958730D+00
      0.1921470000D+00 -0.4736441984D+00
      0.8759500000D-01 -0.6770952844D+00
 S  11 1.00       0.000000000000
      0.1832582000D+05  0.5609979057D-05
      0.6614955000D+04 -0.2573925820D-05
      0.2579199000D+04  0.7815859322D-04
      0.4651045000D+03  0.9576420082D-03
      0.2104130000D+03  0.7011261585D-03
      0.9761629000D+02  0.6552647950D-02
      0.4438020000D+02 -0.8815197364D-02
      0.2142308000D+02 -0.2453803490D-01
      0.1030891000D+02 -0.1203210329D+00
      0.4553645000D+01  0.1524538980D+00
      0.1921470000D+00  0.9781229693D+00
 S  11 1.00       0.000000000000
      0.1832582000D+05 -0.8564366277D-05
      0.6614955000D+04  0.3681138252D-05
      0.2579199000D+04 -0.1202612026D-03
      0.4651045000D+03 -0.1371070220D-02
      0.9761629000D+02 -0.5254556873D-02
      0.4438020000D+02  0.1268610915D-01
      0.2142308000D+02 -0.9696597388D-01
      0.1030891000D+02 -0.1771136145D+00
      0.4553645000D+01  0.1664222468D+00
      0.2132821000D+01  0.1003959530D+01
      0.1921470000D+00 -0.8141051538D+00
 S   1 1.00       0.000000000000
      0.3770200000D-01  0.1000000000D+01
 P  11 1.00       0.000000000000
      0.2441198000D+05  0.4105114657D-04
      0.5778518000D+04  0.3614546896D-03
      0.1876862000D+04  0.2090656696D-02
      0.7182361000D+03  0.9232712648D-02
      0.3048327000D+03  0.3281554506D-01
      0.1390453000D+03  0.9430366596D-01
      0.6680417000D+02  0.2094234333D+00
      0.3320699000D+02  0.3350550786D+00
      0.1692816000D+02  0.3308607794D+00
      0.8696229000D+01  0.1521709559D+00
      0.4350510000D+01  0.2172615146D-01
 P  10 1.00       0.000000000000
      0.5778518000D+04 -0.8877851708D-05
      0.7182361000D+03 -0.2441030315D-03
      0.3048327000D+03 -0.5407590074D-04
      0.1390453000D+03 -0.3043274181D-02
      0.6680417000D+02 -0.5430271958D-03
      0.3320699000D+02 -0.1903663998D-01
      0.1692816000D+02  0.2539021175D-01
      0.8696229000D+01 -0.3141338769D-01
      0.4350510000D+01 -0.2816228848D-01
      0.9953870000D+00  0.1020816268D+01
 P   9 1.00       0.000000000000
      0.7182361000D+03  0.2668890615D-05
      0.3048327000D+03 -0.3374783888D-05
      0.6680417000D+02 -0.1584306381D-03
      0.1692816000D+02  0.9899985402D-03
      0.4350510000D+01 -0.2699464774D-01
      0.2116523000D+01 -0.1249115445D-01
      0.9953870000D+00  0.7256894641D-01
      0.3781120000D+00  0.3829943468D+00
      0.1345790000D+00  0.6530286935D+00
 P   9 1.00       0.000000000000
      0.7182361000D+03  0.9390726746D-05
      0.3048327000D+03 -0.1185545227D-04
      0.6680417000D+02 -0.5108126233D-03
      0.1692816000D+02  0.3945575099D-02
      0.8696229000D+01  0.5580351718D-02
      0.4350510000D+01 -0.8244475427D-01
      0.2116523000D+01  0.9105007379D-02
      0.9953870000D+00  0.3337692793D+00
      0.3781120000D+00  0.7431532920D+00
 P  10 1.00       0.000000000000
      0.5778518000D+04 -0.7802763863D-05
      0.7182361000D+03 -0.1693919350D-03
      0.3048327000D+03  0.3159389680D-03
      0.6680417000D+02  0.1017184620D-01
      0.3320699000D+02  0.1254561776D-01
      0.1692816000D+02  0.5085111829D-01
      0.8696229000D+01 -0.1745632491D+00
      0.4350510000D+01 -0.5575487626D+00
      0.2116523000D+01 -0.6695223776D+00
      0.9953870000D+00  0.4927371878D+00
 P   1 1.00       0.000000000000
      0.4628200000D-01  0.1000000000D+01
 D   5 1.00       0.000000000000
      0.6144981000D+02 -0.1627069828D-02
      0.2305689000D+02 -0.5645739998D-02
      0.9577739000D+01 -0.7107323650D-01
      0.4133734000D+01  0.2883883047D+00
      0.1747518000D+01  0.8015717485D+00
 D   5 1.00       0.000000000000
      0.6144981000D+02 -0.9057168371D-03
      0.9577739000D+01 -0.2245656133D-01
      0.4133734000D+01  0.1050357490D+00
      0.1747518000D+01 -0.8282428294D-01
      0.6995600000D+00 -0.9692942320D+00
 D   5 1.00       0.000000000000
      0.2056177000D+03  0.4818927105D-02
      0.6144981000D+02  0.3917234290D-01
      0.2305689000D+02  0.1635410151D+00
      0.9577739000D+01  0.4643636076D+00
      0.4133734000D+01  0.4884185612D+00
 D   1 1.00       0.000000000000
      0.2516080000D+00  0.1000000000D+01
 F   1 1.00       0.000000000000
      0.5792200000D+01  0.1000000000D+01
 F   1 1.00       0.000000000000
      0.1485100000D+01  0.1000000000D+01
 G   1 1.00       0.000000000000
      0.4114400000D+01  0.1000000000D+01
 ****
      2 0
 S   7 1.00       0.000000000000
      0.8236000000D+04  0.5419783203D-03
      0.1235000000D+04  0.4192873817D-02
      0.2808000000D+03  0.2152216205D-01
      0.7927000000D+02  0.8353432195D-01
      0.2559000000D+02  0.2395828457D+00
      0.8997000000D+01  0.4428528419D+00
      0.3319000000D+01  0.3517995618D+00
 S   6 1.00       0.000000000000
      0.2808000000D+03 -0.5949224937D-04
      0.7927000000D+02 -0.1148158310D-02
      0.2559000000D+02 -0.1001913745D-01
      0.8997000000D+01 -0.6121949230D-01
      0.3319000000D+01 -0.1732698541D+00
      0.3643000000D+00  0.1072915192D+01
 S   1 1.00       0.000000000000
      0.9059000000D+00  0.1000000000D+01
 S   1 1.00       0.000000000000
      0.1285000000D+00  0.1000000000D+01
 P   3 1.00       0.000000000000
      0.1871000000D+02  0.3942638716D-01
      0.4133000000D+01  0.2440889849D+00
      0.1200000000D+01  0.8154920089D+00
 P   1 1.00       0.000000000000
      0.3827000000D+00  0.1000000000D+01
 P   1 1.00       0.000000000000
      0.1209000000D+00  0.1000000000D+01
 D   1 1.00       0.000000000000
      0.1097000000D+01  0.1000000000D+01
 D   1 1.00       0.000000000000
      0.3180000000D+00  0.1000000000D+01
 F   1 1.00       0.000000000000
      0.7610000000D+00  0.1000000000D+01
 ****
      3 0
 S   7 1.00       0.000000000000
      0.8236000000D+04  0.5419783203D-03
      0.1235000000D+04  0.4192873817D-02
      0.2808000000D+03  0.2152216205D-01
      0.7927000000D+02  0.8353432195D-01
      0.2559000000D+02  0.2395828457D+00
      0.8997000000D+01  0.4428528419D+00
      0.3319000000D+01  0.3517995618D+00
 S   6 1.00       0.000000000000
      0.2808000000D+03 -0.5949224937D-04
      0.7927000000D+02 -0.1148158310D-02
      0.2559000000D+02 -0.1001913745D-01
      0.8997000000D+01 -0.6121949230D-01
      0.3319000000D+01 -0.1732698541D+00
      0.3643000000D+00  0.1072915192D+01
 S   1 1.00       0.000000000000
      0.9059000000D+00  0.1000000000D+01
 S   1 1.00       0.000000000000
      0.1285000000D+00  0.1000000000D+01
 P   3 1.00       0.000000000000
      0.1871000000D+02  0.3942638716D-01
      0.4133000000D+01  0.2440889849D+00
      0.1200000000D+01  0.8154920089D+00
 P   1 1.00       0.000000000000
      0.3827000000D+00  0.1000000000D+01
 P   1 1.00       0.000000000000
      0.1209000000D+00  0.1000000000D+01
 D   1 1.00       0.000000000000
      0.1097000000D+01  0.1000000000D+01
 D   1 1.00       0.000000000000
      0.3180000000D+00  0.1000000000D+01
 F   1 1.00       0.000000000000
      0.7610000000D+00  0.1000000000D+01
 ****
      4 0
 S   3 1.00       0.000000000000
      0.3387000000D+02  0.2549486323D-01
      0.5095000000D+01  0.1903627659D+00
      0.1159000000D+01  0.8521620222D+00
 S   1 1.00       0.000000000000
      0.3258000000D+00  0.1000000000D+01
 S   1 1.00       0.000000000000
      0.1027000000D+00  0.1000000000D+01
 P   1 1.00       0.000000000000
      0.1407000000D+01  0.1000000000D+01
 P   1 1.00       0.000000000000
      0.3880000000D+00  0.1000000000D+01
 D   1 1.00       0.000000000000
      0.1057000000D+01  0.1000000000D+01
 ****
      5 0
 S   3 1.00       0.000000000000
      0.3387000000D+02  0.2549486323D-01
      0.5095000000D+01  0.1903627659D+00
      0.1159000000D+01  0.8521620222D+00
 S   1 1.00       0.000000000000
      0.3258000000D+00  0.1000000000D+01
 S   1 1.00       0.000000000000
      0.1027000000D+00  0.1000000000D+01
 P   1 1.00       0.000000000000
      0.1407000000D+01  0.1000000000D+01
 P   1 1.00       0.000000000000
      0.3880000000D+00  0.1000000000D+01
 D   1 1.00       0.000000000000
      0.1057000000D+01  0.1000000000D+01
 ****
      6 0
 S   3 1.00       0.000000000000
      0.3387000000D+02  0.2549486323D-01
      0.5095000000D+01  0.1903627659D+00
      0.1159000000D+01  0.8521620222D+00
 S   1 1.00       0.000000000000
      0.3258000000D+00  0.1000000000D+01
 S   1 1.00       0.000000000000
      0.1027000000D+00  0.1000000000D+01
 P   1 1.00       0.000000000000
      0.1407000000D+01  0.1000000000D+01
 P   1 1.00       0.000000000000
      0.3880000000D+00  0.1000000000D+01
 D   1 1.00       0.000000000000
      0.1057000000D+01  0.1000000000D+01
 ****
      7 0
 S   3 1.00       0.000000000000
      0.3387000000D+02  0.2549486323D-01
      0.5095000000D+01  0.1903627659D+00
      0.1159000000D+01  0.8521620222D+00
 S   1 1.00       0.000000000000
      0.3258000000D+00  0.1000000000D+01
 S   1 1.00       0.000000000000
      0.1027000000D+00  0.1000000000D+01
 P   1 1.00       0.000000000000
      0.1407000000D+01  0.1000000000D+01
 P   1 1.00       0.000000000000
      0.3880000000D+00  0.1000000000D+01
 D   1 1.00       0.000000000000
      0.1057000000D+01  0.1000000000D+01
 ****
      8 0
 S   3 1.00       0.000000000000
      0.3387000000D+02  0.2549486323D-01
      0.5095000000D+01  0.1903627659D+00
      0.1159000000D+01  0.8521620222D+00
 S   1 1.00       0.000000000000
      0.3258000000D+00  0.1000000000D+01
 S   1 1.00       0.000000000000
      0.1027000000D+00  0.1000000000D+01
 P   1 1.00       0.000000000000
      0.1407000000D+01  0.1000000000D+01
 P   1 1.00       0.000000000000
      0.3880000000D+00  0.1000000000D+01
 D   1 1.00       0.000000000000
      0.1057000000D+01  0.1000000000D+01
 ****
      9 0
 S   7 1.00       0.000000000000
      0.8236000000D+04  0.5419783203D-03
      0.1235000000D+04  0.4192873817D-02
      0.2808000000D+03  0.2152216205D-01
      0.7927000000D+02  0.8353432195D-01
      0.2559000000D+02  0.2395828457D+00
      0.8997000000D+01  0.4428528419D+00
      0.3319000000D+01  0.3517995618D+00
 S   6 1.00       0.000000000000
      0.2808000000D+03 -0.5949224937D-04
      0.7927000000D+02 -0.1148158310D-02
      0.2559000000D+02 -0.1001913745D-01
      0.8997000000D+01 -0.6121949230D-01
      0.3319000000D+01 -0.1732698541D+00
      0.3643000000D+00  0.1072915192D+01
 S   1 1.00       0.000000000000
      0.9059000000D+00  0.1000000000D+01
 S   1 1.00       0.000000000000
      0.1285000000D+00  0.1000000000D+01
 P   3 1.00       0.000000000000
      0.1871000000D+02  0.3942638716D-01
      0.4133000000D+01  0.2440889849D+00
      0.1200000000D+01  0.8154920089D+00
 P   1 1.00       0.000000000000
      0.3827000000D+00  0.1000000000D+01
 P   1 1.00       0.000000000000
      0.1209000000D+00  0.1000000000D+01
 D   1 1.00       0.000000000000
      0.1097000000D+01  0.1000000000D+01
 D   1 1.00       0.000000000000
      0.3180000000D+00  0.1000000000D+01
 F   1 1.00       0.000000000000
      0.7610000000D+00  0.1000000000D+01
 ****
     10 0
 S   7 1.00       0.000000000000
      0.8236000000D+04  0.5419783203D-03
      0.1235000000D+04  0.4192873817D-02
      0.2808000000D+03  0.2152216205D-01
      0.7927000000D+02  0.8353432195D-01
      0.2559000000D+02  0.2395828457D+00
      0.8997000000D+01  0.4428528419D+00
      0.3319000000D+01  0.3517995618D+00
 S   6 1.00       0.000000000000
      0.2808000000D+03 -0.5949224937D-04
      0.7927000000D+02 -0.1148158310D-02
      0.2559000000D+02 -0.1001913745D-01
      0.8997000000D+01 -0.6121949230D-01
      0.3319000000D+01 -0.1732698541D+00
      0.3643000000D+00  0.1072915192D+01
 S   1 1.00       0.000000000000
      0.9059000000D+00  0.1000000000D+01
 S   1 1.00       0.000000000000
      0.1285000000D+00  0.1000000000D+01
 P   3 1.00       0.000000000000
      0.1871000000D+02  0.3942638716D-01
      0.4133000000D+01  0.2440889849D+00
      0.1200000000D+01  0.8154920089D+00
 P   1 1.00       0.000000000000
      0.3827000000D+00  0.1000000000D+01
 P   1 1.00       0.000000000000
      0.1209000000D+00  0.1000000000D+01
 D   1 1.00       0.000000000000
      0.1097000000D+01  0.1000000000D+01
 D   1 1.00       0.000000000000
      0.3180000000D+00  0.1000000000D+01
 F   1 1.00       0.000000000000
      0.7610000000D+00  0.1000000000D+01
 ****
     11 0
 S   3 1.00       0.000000000000
      0.3387000000D+02  0.2549486323D-01
      0.5095000000D+01  0.1903627659D+00
      0.1159000000D+01  0.8521620222D+00
 S   1 1.00       0.000000000000
      0.3258000000D+00  0.1000000000D+01
 S   1 1.00       0.000000000000
      0.1027000000D+00  0.1000000000D+01
 P   1 1.00       0.000000000000
      0.1407000000D+01  0.1000000000D+01
 P   1 1.00       0.000000000000
      0.3880000000D+00  0.1000000000D+01
 D   1 1.00       0.000000000000
      0.1057000000D+01  0.1000000000D+01
 ****
     12 0
 S   3 1.00       0.000000000000
      0.3387000000D+02  0.2549486323D-01
      0.5095000000D+01  0.1903627659D+00
      0.1159000000D+01  0.8521620222D+00
 S   1 1.00       0.000000000000
      0.3258000000D+00  0.1000000000D+01
 S   1 1.00       0.000000000000
      0.1027000000D+00  0.1000000000D+01
 P   1 1.00       0.000000000000
      0.1407000000D+01  0.1000000000D+01
 P   1 1.00       0.000000000000
      0.3880000000D+00  0.1000000000D+01
 D   1 1.00       0.000000000000
      0.1057000000D+01  0.1000000000D+01
 ****
     13 0
 S   3 1.00       0.000000000000
      0.3387000000D+02  0.2549486323D-01
      0.5095000000D+01  0.1903627659D+00
      0.1159000000D+01  0.8521620222D+00
 S   1 1.00       0.000000000000
      0.3258000000D+00  0.1000000000D+01
 S   1 1.00       0.000000000000
      0.1027000000D+00  0.1000000000D+01
 P   1 1.00       0.000000000000
      0.1407000000D+01  0.1000000000D+01
 P   1 1.00       0.000000000000
      0.3880000000D+00  0.1000000000D+01
 D   1 1.00       0.000000000000
      0.1057000000D+01  0.1000000000D+01
 ****
     14 0
 S   3 1.00       0.000000000000
      0.3387000000D+02  0.2549486323D-01
      0.5095000000D+01  0.1903627659D+00
      0.1159000000D+01  0.8521620222D+00
 S   1 1.00       0.000000000000
      0.3258000000D+00  0.1000000000D+01
 S   1 1.00       0.000000000000
      0.1027000000D+00  0.1000000000D+01
 P   1 1.00       0.000000000000
      0.1407000000D+01  0.1000000000D+01
 P   1 1.00       0.000000000000
      0.3880000000D+00  0.1000000000D+01
 D   1 1.00       0.000000000000
      0.1057000000D+01  0.1000000000D+01
 ****
     15 0
 S   3 1.00       0.000000000000
      0.3387000000D+02  0.2549486323D-01
      0.5095000000D+01  0.1903627659D+00
      0.1159000000D+01  0.8521620222D+00
 S   1 1.00       0.000000000000
      0.3258000000D+00  0.1000000000D+01
 S   1 1.00       0.000000000000
      0.1027000000D+00  0.1000000000D+01
 P   1 1.00       0.000000000000
      0.1407000000D+01  0.1000000000D+01
 P   1 1.00       0.000000000000
      0.3880000000D+00  0.1000000000D+01
 D   1 1.00       0.000000000000
      0.1057000000D+01  0.1000000000D+01
 ****

 There are   191 symmetry adapted cartesian basis functions of A   symmetry.
 There are   183 symmetry adapted cartesian basis functions of B   symmetry.
 There are   166 symmetry adapted basis functions of A   symmetry.
 There are   162 symmetry adapted basis functions of B   symmetry.
   328 basis functions,   725 primitive gaussians,   374 cartesian basis functions
    33 alpha electrons       30 beta electrons
       nuclear repulsion energy       320.7392817687 Hartrees.
 NAtoms=   15 NActive=   15 NUniq=    8 SFac= 3.52D+00 NAtFMM=   60 NAOKFM=F Big=F
 Integral buffers will be    131072 words long.
 Raffenetti 2 integral format.
 Two-electron integral symmetry is turned on.
 One-electron integrals computed using PRISM.
 NBasis=   328 RedAO= T EigKep=  6.20D-04  NBF=   166   162
 NBsUse=   328 1.00D-06 EigRej= -1.00D+00 NBFU=   166   162
 Initial guess from the checkpoint file:  "ZnEt2.chk"
 B after Tr=     0.000000    0.000000    0.000000
         Rot=    1.000000    0.000000    0.000000    0.000000 Ang=   0.00 deg.
 Initial guess orbital symmetries:
 Alpha Orbitals:
       Occupied  (A) (A) (B) (A) (B) (A) (B) (B) (A) (A) (B) (A)
                 (B) (A) (B) (A) (B) (B) (A) (B) (A) (A) (A) (B)
                 (A) (B) (B) (A) (A) (B) (A) (B) (A)
       Virtual   (B) (A) (B) (A) (A) (B) (A) (B) (B) (B) (A) (A)
                 (A) (B) (A) (B) (A) (B) (A) (B) (B) (A) (A) (B)
                 (B) (A) (B) (A) (B) (A) (A) (B) (A) (B) (B) (B)
                 (A) (A) (B) (A) (B) (A) (A) (B) (A) (B) (B) (A)
                 (B) (A) (A) (A) (B) (B) (A) (B) (B) (A) (B) (A)
                 (B) (A) (B) (B) (A) (B) (A) (A) (B) (A) (B) (B)
                 (A) (A) (A) (B) (A) (B) (B) (B) (A) (A) (A) (A)
                 (B) (A) (B) (B) (A) (A) (B) (B) (A) (A) (B) (B)
                 (A) (A) (B) (B) (A) (B) (A) (B) (B) (A) (B) (A)
                 (A) (B) (B) (A) (A) (B) (A) (B) (B) (A) (A) (B)
                 (B) (A) (A) (B) (A) (B) (A) (B) (A) (B) (A) (B)
                 (B) (A) (A) (B) (A) (A) (B) (B) (A) (B) (B) (A)
                 (B) (A) (B) (A) (B) (A) (B) (A) (A) (B) (B) (A)
                 (B) (A) (A) (A) (B) (B) (B) (A) (A) (B) (A) (B)
                 (A) (B) (A) (A) (A) (B) (B) (B) (A) (B) (A) (B)
                 (B) (A) (A) (B) (A) (B) (B) (B) (A) (A) (A) (B)
                 (A) (B) (A) (A) (B) (B) (B) (A) (A) (B) (A) (A)
                 (B) (B) (A) (A) (B) (B) (A) (B) (A) (B) (A) (A)
                 (B) (A) (B) (A) (B) (A) (B) (A) (B) (B) (A) (B)
                 (A) (B) (B) (A) (A) (A) (A) (B) (B) (B) (A) (A)
                 (B) (B) (B) (A) (A) (B) (A) (A) (B) (B) (A) (B)
                 (B) (A) (B) (A) (A) (B) (B) (A) (A) (B) (A) (B)
                 (A) (B) (A) (B) (B) (A) (B) (A) (B) (A) (A) (A)
                 (B) (B) (A) (A) (B) (B) (A) (A) (B) (B) (A) (B)
                 (B) (A) (A) (B) (A) (B) (A)
 Beta  Orbitals:
       Occupied  (A) (A) (B) (A) (B) (A) (B) (B) (A) (A) (B) (A)
                 (B) (A) (B) (A) (B) (B) (A) (B) (A) (A) (A) (B)
                 (A) (B) (B) (A) (A) (B)
       Virtual   (A) (B) (A) (B) (A) (B) (A) (A) (B) (A) (B) (B)
                 (B) (A) (A) (A) (B) (A) (B) (A) (B) (A) (B) (B)
                 (A) (A) (B) (B) (A) (B) (A) (B) (A) (A) (B) (A)
                 (B) (B) (B) (A) (A) (B) (A) (B) (A) (A) (B) (A)
                 (B) (B) (A) (B) (A) (A) (A) (B) (B) (A) (B) (B)
                 (A) (B) (A) (B) (A) (B) (B) (A) (B) (A) (A) (B)
                 (A) (B) (B) (A) (A) (A) (B) (A) (B) (B) (B) (A)
                 (A) (A) (A) (B) (A) (B) (B) (A) (A) (B) (B) (A)
                 (A) (B) (B) (A) (A) (B) (B) (A) (B) (A) (B) (B)
                 (A) (B) (A) (A) (B) (B) (A) (A) (B) (A) (B) (B)
                 (A) (A) (B) (B) (A) (A) (B) (A) (B) (A) (B) (A)
                 (B) (A) (B) (B) (A) (A) (B) (A) (A) (B) (B) (A)
                 (B) (B) (A) (B) (A) (B) (A) (B) (A) (B) (A) (A)
                 (B) (B) (A) (B) (A) (A) (A) (B) (B) (B) (A) (A)
                 (B) (A) (B) (A) (B) (A) (A) (A) (B) (B) (B) (A)
                 (B) (A) (B) (B) (A) (A) (B) (A) (B) (B) (B) (A)
                 (A) (A) (B) (A) (B) (A) (A) (B) (B) (B) (A) (A)
                 (B) (A) (A) (B) (B) (A) (A) (B) (B) (A) (B) (A)
                 (B) (A) (A) (B) (A) (B) (A) (B) (A) (B) (A) (B)
                 (B) (A) (B) (A) (B) (B) (A) (A) (A) (A) (B) (B)
                 (B) (A) (A) (B) (B) (B) (A) (A) (B) (A) (A) (B)
                 (B) (A) (B) (B) (A) (B) (A) (A) (B) (B) (A) (A)
                 (B) (A) (B) (A) (B) (A) (B) (B) (A) (B) (A) (B)
                 (A) (A) (A) (B) (B) (A) (A) (B) (B) (A) (A) (B)
                 (B) (A) (B) (B) (A) (A) (B) (A) (B) (A)
 Initial guess <Sx>= 0.0000 <Sy>= 0.0000 <Sz>= 1.5000 <S**2>= 3.7500 S= 1.5000
 Requested convergence on RMS density matrix=1.00D-08 within  64 cycles.
 Requested convergence on MAX density matrix=1.00D-06.
 Requested convergence on             energy=1.00D-06.
 No special actions if energy rises.
 Rare condition: small coef for last iteration:  0.000D+00
 Rare condition: small coef for last iteration:  0.000D+00
 Rare condition: small coef for last iteration:  0.000D+00
 Rare condition: small coef for last iteration:  0.000D+00
 Rare condition: small coef for last iteration:  0.000D+00
 Rare condition: small coef for last iteration:  0.000D+00
 Restarting incremental Fock formation.
 SCF Done:  E(UHF) =  -1934.67356825     A.U. after   29 cycles
            NFock= 29  Conv=0.47D-08     -V/T= 1.9998
 <Sx>= 0.0000 <Sy>= 0.0000 <Sz>= 1.5000 <S**2>= 3.7693 S= 1.5048
 <L.S>= 0.000000000000E+00
 Annihilation of the first spin contaminant:
 S**2 before annihilation     3.7693,   after     3.7502
 QCSCF skips out because SCF is already converged.
 ExpMin= 3.77D-02 ExpMax= 5.82D+06 ExpMxC= 6.61D+03 IAcc=3 IRadAn=         5 AccDes= 0.00D+00
 HarFok:  IExCor=  205 AccDes= 0.00D+00 IRadAn=         5 IDoV=-2 UseB2=F ITyADJ=14
 ICtDFT= 12500011 ScaDFX=  1.000000  1.000000  1.000000  1.000000
 Range of M.O.s used for correlation:    14   328
 NBasis=   328 NAE=    33 NBE=    30 NFC=    13 NFV=     0
 NROrb=    315 NOA=    20 NOB=    17 NVA=   295 NVB=   298

 **** Warning!!: The largest alpha MO coefficient is  0.11716066D+02


 **** Warning!!: The largest beta MO coefficient is  0.11370869D+02

 Semi-Direct transformation.
 ModeAB=           4 MOrb=            20 LenV=    2093890875
 LASXX=    150021496 LTotXX=   150021496 LenRXX=   302069980
 LTotAB=   152048484 MaxLAS=   209821500 LenRXY=           0
 NonZer=   452091476 LenScr=   680797184 LnRSAI=   209821500
 LnScr1=   315967488 LExtra=           0 Total=   1508656152
 MaxDsk=          -1 SrtSym=           T ITran=            4
 JobTyp=1 Pass  1:  I=   1 to  20.
 (rs|ai) integrals will be sorted in core.
 ModeAB=           4 MOrb=            17 LenV=    2093890875
 LASXX=    128283862 LTotXX=   128283862 LenRXX=   242215446
 LTotAB=   113931584 MaxLAS=   178348275 LenRXY=           0
 NonZer=   370499308 LenScr=   557928448 LnRSAI=   178348275
 LnScr1=   268571648 LExtra=           0 Total=   1247063817
 MaxDsk=          -1 SrtSym=           T ITran=            4
 JobTyp=2 Pass  1:  I=   1 to  17.
 (rs|ai) integrals will be sorted in core.
 Spin components of T(2) and E(2):
     alpha-alpha T2 =       0.4495867610D-01 E2=     -0.1857761409D+00
     alpha-beta  T2 =       0.2057008466D+00 E2=     -0.8402435512D+00
     beta-beta   T2 =       0.3077690340D-01 E2=     -0.1430849275D+00
 ANorm=    0.1132005489D+01
 E2 =    -0.1169104620D+01 EUMP2 =    -0.19358426728682D+04
 (S**2,0)=  0.37693D+01           (S**2,1)=  0.37541D+01
 E(PUHF)=      -0.19346767987D+04        E(PMP2)=      -0.19358446378D+04
 Would need an additional        86502355 words for in-memory AO integral storage.
 Iterations= 100 Convergence= 0.100D-06
 Iteration Nr.   1
 **********************
 DD1Dir will call FoFJK   1 times, MxPair=      1006
 NAB=   340 NAA=   190 NBB=   136 NumPrc=  8.
 FoFJK:  IHMeth= 1 ICntrl=     200 DoSepK=F KAlg= 0 I1Cent=   0 FoldK=F
 IRaf= 990000000 NMat=1006 IRICut=    1665 DoRegI=T DoRafI=T ISym2E=-1.
 FoFCou: FMM=F IPFlag=           0 FMFlag=      100000 FMFlg1=           0
         NFxFlg=           0 DoJE=F BraDBF=F KetDBF=F FulRan=T
         wScrn=  0.000000 ICntrl=     200 IOpCl=  0 I1Cent=           0 NGrid=           0
         NMat0= 1006 NMatS0=      0 NMatT0=  340 NMatD0= 1006 NMtDS0=    0 NMtDT0=    0
 Petite list used in FoFCou.
 E(PMP3)=      -0.19358364183D+04
 MP4(R+Q)=  0.15534475D-01
 E3=        0.74287807D-02        EUMP3=      -0.19358352441D+04
 E4(DQ)=   -0.17543875D-01        UMP4(DQ)=   -0.19358527880D+04
 E4(SDQ)=  -0.29837664D-01        UMP4(SDQ)=  -0.19358650818D+04
 DE(Corr)=  -1.1455555     E(Corr)=     -1935.8191237    
 NORM(A)=   0.11423949D+01
 Iteration Nr.   2
 **********************
 DD1Dir will call FoFJK   1 times, MxPair=      1006
 NAB=   340 NAA=   190 NBB=   136 NumPrc=  8.
 DE(Corr)=  -1.1808895     E(CORR)=     -1935.8544578     Delta=-3.53D-02
 NORM(A)=   0.11543756D+01
 Iteration Nr.   3
 **********************
 DD1Dir will call FoFJK   1 times, MxPair=      1006
 NAB=   340 NAA=   190 NBB=   136 NumPrc=  8.
 DE(Corr)=  -1.1799626     E(CORR)=     -1935.8535309     Delta= 9.27D-04
 NORM(A)=   0.11599155D+01
 Iteration Nr.   4
 **********************
 DD1Dir will call FoFJK   1 times, MxPair=      1006
 NAB=   340 NAA=   190 NBB=   136 NumPrc=  8.
 DE(Corr)=  -1.1838334     E(CORR)=     -1935.8574017     Delta=-3.87D-03
 NORM(A)=   0.11633362D+01
 Iteration Nr.   5
 **********************
 DD1Dir will call FoFJK   1 times, MxPair=      1006
 NAB=   340 NAA=   190 NBB=   136 NumPrc=  8.
 DE(Corr)=  -1.1846805     E(CORR)=     -1935.8582487     Delta=-8.47D-04
 NORM(A)=   0.11656098D+01
 Iteration Nr.   6
 **********************
 DD1Dir will call FoFJK   1 times, MxPair=      1006
 NAB=   340 NAA=   190 NBB=   136 NumPrc=  8.
 DE(Corr)=  -1.1849371     E(CORR)=     -1935.8585054     Delta=-2.57D-04
 NORM(A)=   0.11665485D+01
 Iteration Nr.   7
 **********************
 DD1Dir will call FoFJK   1 times, MxPair=      1006
 NAB=   340 NAA=   190 NBB=   136 NumPrc=  8.
 DE(Corr)=  -1.1850056     E(CORR)=     -1935.8585738     Delta=-6.85D-05
 NORM(A)=   0.11668444D+01
 Iteration Nr.   8
 **********************
 DD1Dir will call FoFJK   1 times, MxPair=      1006
 NAB=   340 NAA=   190 NBB=   136 NumPrc=  8.
 DE(Corr)=  -1.1849804     E(CORR)=     -1935.8585486     Delta= 2.52D-05
 NORM(A)=   0.11671638D+01
 Iteration Nr.   9
 **********************
 DD1Dir will call FoFJK   1 times, MxPair=      1006
 NAB=   340 NAA=   190 NBB=   136 NumPrc=  8.
 DE(Corr)=  -1.1850124     E(CORR)=     -1935.8585807     Delta=-3.20D-05
 NORM(A)=   0.11678044D+01
 Iteration Nr.  10
 **********************
 DD1Dir will call FoFJK   1 times, MxPair=      1006
 NAB=   340 NAA=   190 NBB=   136 NumPrc=  8.
 DE(Corr)=  -1.1849589     E(CORR)=     -1935.8585272     Delta= 5.35D-05
 NORM(A)=   0.11702671D+01
 Iteration Nr.  11
 **********************
 DD1Dir will call FoFJK   1 times, MxPair=      1006
 NAB=   340 NAA=   190 NBB=   136 NumPrc=  8.
 DE(Corr)=  -1.1850908     E(CORR)=     -1935.8586590     Delta=-1.32D-04
 NORM(A)=   0.12251333D+01
 Iteration Nr.  12
 **********************
 DD1Dir will call FoFJK   1 times, MxPair=      1006
 NAB=   340 NAA=   190 NBB=   136 NumPrc=  8.
 DE(Corr)=  -1.1850719     E(CORR)=     -1935.8586401     Delta= 1.89D-05
 NORM(A)=   0.13604819D+01
 Iteration Nr.  13
 **********************
 DD1Dir will call FoFJK   1 times, MxPair=      1006
 NAB=   340 NAA=   190 NBB=   136 NumPrc=  8.
 DE(Corr)=  -1.1853900     E(CORR)=     -1935.8589582     Delta=-3.18D-04
 NORM(A)=   0.30357223D+01
 Iteration Nr.  14
 **********************
 DD1Dir will call FoFJK   1 times, MxPair=      1006
 NAB=   340 NAA=   190 NBB=   136 NumPrc=  8.
 DE(Corr)=  -1.1857233     E(CORR)=     -1935.8592915     Delta=-3.33D-04
 NORM(A)=   0.11682150D+01
 Iteration Nr.  15
 **********************
 DD1Dir will call FoFJK   1 times, MxPair=      1006
 NAB=   340 NAA=   190 NBB=   136 NumPrc=  8.
 DE(Corr)=  -1.1850299     E(CORR)=     -1935.8585981     Delta= 6.93D-04
 NORM(A)=   0.11703023D+01
 Iteration Nr.  16
 **********************
 DD1Dir will call FoFJK   1 times, MxPair=      1006
 NAB=   340 NAA=   190 NBB=   136 NumPrc=  8.
 DE(Corr)=  -1.1850322     E(CORR)=     -1935.8586004     Delta=-2.30D-06
 NORM(A)=   0.11847530D+01
 Iteration Nr.  17
 **********************
 DD1Dir will call FoFJK   1 times, MxPair=      1006
 NAB=   340 NAA=   190 NBB=   136 NumPrc=  8.
 DE(Corr)=  -1.1851208     E(CORR)=     -1935.8586890     Delta=-8.86D-05
 NORM(A)=   0.11700084D+01
 Iteration Nr.  18
 **********************
 DD1Dir will call FoFJK   1 times, MxPair=      1006
 NAB=   340 NAA=   190 NBB=   136 NumPrc=  8.
 DE(Corr)=  -1.1849865     E(CORR)=     -1935.8585548     Delta= 1.34D-04
 NORM(A)=   0.12088066D+01
 Iteration Nr.  19
 **********************
 DD1Dir will call FoFJK   1 times, MxPair=      1006
 NAB=   340 NAA=   190 NBB=   136 NumPrc=  8.
 DE(Corr)=  -1.1851781     E(CORR)=     -1935.8587464     Delta=-1.92D-04
 NORM(A)=   0.11738621D+01
 Iteration Nr.  20
 **********************
 DD1Dir will call FoFJK   1 times, MxPair=      1006
 NAB=   340 NAA=   190 NBB=   136 NumPrc=  8.
 DE(Corr)=  -1.1849741     E(CORR)=     -1935.8585423     Delta= 2.04D-04
 NORM(A)=   0.11731767D+01
 Iteration Nr.  21
 **********************
 DD1Dir will call FoFJK   1 times, MxPair=      1006
 NAB=   340 NAA=   190 NBB=   136 NumPrc=  8.
 DE(Corr)=  -1.1849580     E(CORR)=     -1935.8585262     Delta= 1.61D-05
 NORM(A)=   0.11703525D+01
 Iteration Nr.  22
 **********************
 DD1Dir will call FoFJK   1 times, MxPair=      1006
 NAB=   340 NAA=   190 NBB=   136 NumPrc=  8.
 DE(Corr)=  -1.1849472     E(CORR)=     -1935.8585155     Delta= 1.08D-05
 NORM(A)=   0.11717080D+01
 Iteration Nr.  23
 **********************
 DD1Dir will call FoFJK   1 times, MxPair=      1006
 NAB=   340 NAA=   190 NBB=   136 NumPrc=  8.
 DE(Corr)=  -1.1849443     E(CORR)=     -1935.8585125     Delta= 2.94D-06
 NORM(A)=   0.11716425D+01
 Iteration Nr.  24
 **********************
 DD1Dir will call FoFJK   1 times, MxPair=      1006
 NAB=   340 NAA=   190 NBB=   136 NumPrc=  8.
 DE(Corr)=  -1.1849474     E(CORR)=     -1935.8585156     Delta=-3.10D-06
 NORM(A)=   0.11715397D+01
 Iteration Nr.  25
 **********************
 DD1Dir will call FoFJK   1 times, MxPair=      1006
 NAB=   340 NAA=   190 NBB=   136 NumPrc=  8.
 DE(Corr)=  -1.1849448     E(CORR)=     -1935.8585130     Delta= 2.60D-06
 NORM(A)=   0.11717627D+01
 Iteration Nr.  26
 **********************
 DD1Dir will call FoFJK   1 times, MxPair=      1006
 NAB=   340 NAA=   190 NBB=   136 NumPrc=  8.
 DE(Corr)=  -1.1849435     E(CORR)=     -1935.8585118     Delta= 1.23D-06
 NORM(A)=   0.11715860D+01
 Iteration Nr.  27
 **********************
 DD1Dir will call FoFJK   1 times, MxPair=      1006
 NAB=   340 NAA=   190 NBB=   136 NumPrc=  8.
 DE(Corr)=  -1.1849473     E(CORR)=     -1935.8585156     Delta=-3.79D-06
 NORM(A)=   0.11716363D+01
 Iteration Nr.  28
 **********************
 DD1Dir will call FoFJK   1 times, MxPair=      1006
 NAB=   340 NAA=   190 NBB=   136 NumPrc=  8.
 DE(Corr)=  -1.1849464     E(CORR)=     -1935.8585146     Delta= 9.45D-07
 NORM(A)=   0.11716438D+01
 Iteration Nr.  29
 **********************
 DD1Dir will call FoFJK   1 times, MxPair=      1006
 NAB=   340 NAA=   190 NBB=   136 NumPrc=  8.
 DE(Corr)=  -1.1849466     E(CORR)=     -1935.8585149     Delta=-2.47D-07
 NORM(A)=   0.11716452D+01
 Iteration Nr.  30
 **********************
 DD1Dir will call FoFJK   1 times, MxPair=      1006
 NAB=   340 NAA=   190 NBB=   136 NumPrc=  8.
 DE(Corr)=  -1.1849468     E(CORR)=     -1935.8585150     Delta=-1.23D-07
 NORM(A)=   0.11716419D+01
 Iteration Nr.  31
 **********************
 DD1Dir will call FoFJK   1 times, MxPair=      1006
 NAB=   340 NAA=   190 NBB=   136 NumPrc=  8.
 DE(Corr)=  -1.1849466     E(CORR)=     -1935.8585148     Delta= 1.64D-07
 NORM(A)=   0.11716304D+01
 Iteration Nr.  32
 **********************
 DD1Dir will call FoFJK   1 times, MxPair=      1006
 NAB=   340 NAA=   190 NBB=   136 NumPrc=  8.
 DE(Corr)=  -1.1849467     E(CORR)=     -1935.8585150     Delta=-1.12D-07
 NORM(A)=   0.11716517D+01
 Iteration Nr.  33
 **********************
 DD1Dir will call FoFJK   1 times, MxPair=      1006
 NAB=   340 NAA=   190 NBB=   136 NumPrc=  8.
 DE(Corr)=  -1.1849467     E(CORR)=     -1935.8585150     Delta=-3.83D-08
 NORM(A)=   0.11716441D+01
 Iteration Nr.  34
 **********************
 DD1Dir will call FoFJK   1 times, MxPair=      1006
 NAB=   340 NAA=   190 NBB=   136 NumPrc=  8.
 DE(Corr)=  -1.1849466     E(CORR)=     -1935.8585149     Delta= 1.06D-07
 NORM(A)=   0.11716434D+01
 Iteration Nr.  35
 **********************
 DD1Dir will call FoFJK   1 times, MxPair=      1006
 NAB=   340 NAA=   190 NBB=   136 NumPrc=  8.
 DE(Corr)=  -1.1849467     E(CORR)=     -1935.8585149     Delta=-2.30D-08
 NORM(A)=   0.11716433D+01
 Dominant configurations:
 ***********************
 Spin Case        I    J    A    B          Value
    AA           33        35           -0.102789D+00
 Largest amplitude= 1.03D-01
 Time for triples=    60110.70 seconds.
 T4(CCSD)= -0.44981854D-01
 T5(CCSD)=  0.26712083D-02
 CCSD(T)= -0.19359008256D+04

 S**2, projected HF & approx projected MPn energies after annihilation of
 unwanted spin states (see manual for definitions):

 spins       (S**2,0) (S**2,1)    PUHF        PMP2        PMP3        PMP4
 annihilated
 s+1         3.74988  3.75008-1934.676799-1935.844637-1935.836417
 s+1,s+2     3.75000  3.75000-1934.676781-1935.844623-1935.836405
 s+1 to s+3  3.75000  3.75000-1934.676781-1935.844623-1935.836405
 s+1 to s+4  3.75000  3.75000-1934.676781-1935.844622-1935.836405
 s+1 to s+5  3.75000  3.75000-1934.676781
 s+1 to s+6  3.75000  3.75000-1934.676781

 Discarding MO integrals.

 **********************************************************************

            Population analysis using the SCF density.

 **********************************************************************

 Orbital symmetries:
 Alpha Orbitals:
       Occupied  (A) (A) (B) (B) (A) (A) (B) (A) (B) (A) (B) (B)
                 (A) (A) (B) (A) (A) (B) (B) (A) (B) (A) (A) (A)
                 (B) (B) (B) (A) (A) (B) (A) (B) (A)
       Virtual   (B) (A) (B) (A) (A) (A) (B) (A) (B) (B) (B) (A)
                 (A) (B) (A) (B) (A) (B) (A) (B) (A) (B) (B) (A)
                 (B) (A) (B) (A) (B) (B) (A) (A) (B) (B) (A) (B)
                 (A) (B) (A) (A) (A) (B) (A) (B) (A) (B) (A) (B)
                 (B) (A) (A) (B) (A) (B) (A) (B) (A) (B) (B) (A)
                 (B) (A) (B) (B) (A) (A) (B) (A) (B) (A) (B) (B)
                 (A) (A) (A) (B) (B) (B) (A) (B) (A) (A) (A) (B)
                 (A) (B) (A) (B) (A) (A) (B) (B) (A) (A) (B) (B)
                 (A) (A) (B) (B) (A) (B) (A) (B) (B) (A) (B) (A)
                 (A) (B) (A) (B) (A) (B) (B) (A) (B) (A) (A) (B)
                 (B) (A) (A) (B) (B) (A) (A) (A) (B) (B) (B) (A)
                 (B) (A) (B) (A) (A) (A) (B) (B) (B) (A) (A) (A)
                 (B) (B) (B) (A) (B) (A) (A) (B) (A) (B) (B) (A)
                 (A) (B) (A) (B) (A) (B) (B) (A) (A) (B) (A) (A)
                 (B) (B) (A) (A) (B) (A) (B) (B) (A) (B) (B) (A)
                 (B) (A) (A) (B) (B) (A) (B) (B) (A) (A) (A) (B)
                 (A) (B) (A) (A) (B) (B) (A) (B) (B) (A) (A) (B)
                 (A) (B) (A) (A) (B) (A) (B) (B) (A) (B) (A) (A)
                 (B) (A) (B) (B) (A) (A) (B) (A) (B) (B) (A) (A)
                 (B) (B) (A) (B) (A) (B) (A) (A) (B) (B) (A) (A)
                 (B) (B) (B) (A) (A) (B) (A) (A) (B) (B) (A) (B)
                 (B) (A) (B) (A) (B) (A) (B) (A) (A) (B) (A) (B)
                 (B) (A) (A) (B) (B) (A) (B) (A) (B) (A) (A) (A)
                 (B) (B) (A) (A) (B) (B) (A) (A) (B) (B) (A) (B)
                 (A) (B) (A) (B) (A) (B) (A)
 Beta  Orbitals:
       Occupied  (A) (A) (B) (A) (B) (A) (B) (A) (B) (A) (B) (A)
                 (B) (A) (B) (A) (B) (B) (A) (A) (B) (A) (A) (B)
                 (B) (A) (B) (A) (A) (B)
       Virtual   (A) (B) (B) (A) (A) (B) (A) (A) (A) (B) (B) (B)
                 (B) (A) (A) (A) (B) (A) (B) (A) (B) (A) (B) (B)
                 (A) (B) (A) (B) (A) (B) (A) (B) (A) (A) (B) (B)
                 (A) (B) (B) (A) (B) (A) (A) (B) (A) (A) (B) (A)
                 (B) (A) (B) (B) (A) (A) (A) (B) (B) (A) (B) (B)
                 (A) (B) (A) (B) (A) (B) (B) (A) (A) (B) (A) (B)
                 (B) (A) (B) (A) (A) (A) (B) (B) (A) (B) (B) (A)
                 (A) (A) (A) (B) (B) (A) (B) (A) (A) (B) (B) (A)
                 (A) (B) (B) (A) (A) (B) (B) (A) (B) (A) (B) (B)
                 (A) (B) (A) (A) (B) (A) (B) (A) (B) (A) (B) (B)
                 (A) (A) (B) (B) (A) (A) (B) (B) (A) (A) (A) (B)
                 (B) (B) (A) (B) (A) (B) (A) (A) (A) (B) (B) (B)
                 (A) (A) (B) (A) (B) (B) (A) (B) (A) (A) (B) (A)
                 (B) (B) (A) (B) (A) (A) (B) (A) (B) (B) (A) (A)
                 (B) (A) (A) (B) (A) (B) (A) (B) (A) (B) (B) (A)
                 (B) (A) (B) (B) (A) (A) (B) (A) (B) (B) (B) (A)
                 (A) (A) (B) (A) (B) (A) (A) (B) (B) (A) (B) (B)
                 (A) (A) (B) (A) (B) (A) (B) (A) (A) (B) (B) (A)
                 (B) (A) (A) (B) (A) (B) (B) (A) (A) (B) (A) (B)
                 (B) (A) (A) (B) (B) (A) (B) (A) (B) (A) (A) (B)
                 (B) (A) (A) (B) (B) (B) (A) (A) (B) (A) (A) (B)
                 (B) (A) (B) (B) (A) (B) (A) (A) (B) (B) (A) (A)
                 (B) (A) (B) (B) (A) (A) (B) (B) (A) (B) (A) (B)
                 (A) (A) (A) (B) (B) (A) (A) (B) (B) (A) (A) (B)
                 (B) (B) (A) (A) (B) (A) (B) (A) (B) (A)
 The electronic state is 4-B.
 Alpha  occ. eigenvalues -- -353.58048 -44.63613 -39.20172 -39.19881 -39.19872
 Alpha  occ. eigenvalues --  -11.44914 -11.44914 -11.40050 -11.40050  -5.92316
 Alpha  occ. eigenvalues --   -4.13496  -4.12210  -4.12205  -1.25533  -1.23741
 Alpha  occ. eigenvalues --   -1.11764  -1.07229  -1.07171  -1.06524  -1.06514
 Alpha  occ. eigenvalues --   -1.04830  -1.02574  -0.80710  -0.80023  -0.79998
 Alpha  occ. eigenvalues --   -0.79424  -0.72002  -0.71968  -0.68205  -0.68011
 Alpha  occ. eigenvalues --   -0.67560  -0.66083  -0.32752
 Alpha virt. eigenvalues --   -0.13092  -0.13032  -0.02098  -0.00112   0.02163
 Alpha virt. eigenvalues --    0.03919   0.03953   0.04767   0.05115   0.06377
 Alpha virt. eigenvalues --    0.08218   0.09848   0.10818   0.11859   0.13937
 Alpha virt. eigenvalues --    0.15413   0.16705   0.20165   0.22167   0.23142
 Alpha virt. eigenvalues --    0.23278   0.23670   0.24502   0.24715   0.28535
 Alpha virt. eigenvalues --    0.29615   0.35386   0.39731   0.40483   0.41458
 Alpha virt. eigenvalues --    0.41500   0.42284   0.43444   0.43713   0.45272
 Alpha virt. eigenvalues --    0.47051   0.47895   0.49367   0.49406   0.50670
 Alpha virt. eigenvalues --    0.51515   0.52651   0.53487   0.55113   0.56040
 Alpha virt. eigenvalues --    0.56637   0.61626   0.62345   0.68588   0.70525
 Alpha virt. eigenvalues --    0.72362   0.76157   0.77309   0.79030   0.80651
 Alpha virt. eigenvalues --    0.82740   0.85420   0.85887   0.86991   0.92027
 Alpha virt. eigenvalues --    0.93011   0.95181   0.96735   0.99787   0.99921
 Alpha virt. eigenvalues --    1.04932   1.05129   1.06948   1.08358   1.09727
 Alpha virt. eigenvalues --    1.10217   1.10550   1.11323   1.12293   1.14696
 Alpha virt. eigenvalues --    1.17459   1.18178   1.18720   1.18868   1.20262
 Alpha virt. eigenvalues --    1.20856   1.24489   1.25757   1.28992   1.29359
 Alpha virt. eigenvalues --    1.32302   1.33113   1.34295   1.34475   1.38577
 Alpha virt. eigenvalues --    1.38721   1.40206   1.41860   1.44023   1.46025
 Alpha virt. eigenvalues --    1.46244   1.52667   1.54036   1.55440   1.57969
 Alpha virt. eigenvalues --    1.62253   1.63976   1.71868   1.73605   2.30168
 Alpha virt. eigenvalues --    2.32453   2.33755   2.35988   2.41117   2.45698
 Alpha virt. eigenvalues --    2.46832   2.47364   2.49574   2.51589   2.55072
 Alpha virt. eigenvalues --    2.55156   2.58173   2.58288   2.65656   2.66308
 Alpha virt. eigenvalues --    2.68032   2.71189   2.71276   2.72632   2.77709
 Alpha virt. eigenvalues --    2.78152   2.80677   2.84499   2.85477   2.88680
 Alpha virt. eigenvalues --    2.89706   2.90967   2.91415   2.92245   2.93990
 Alpha virt. eigenvalues --    2.94927   2.95645   2.99567   3.00326   3.02218
 Alpha virt. eigenvalues --    3.05638   3.08666   3.10043   3.10484   3.11529
 Alpha virt. eigenvalues --    3.11840   3.13423   3.15343   3.18327   3.20654
 Alpha virt. eigenvalues --    3.21641   3.21854   3.23279   3.24605   3.25450
 Alpha virt. eigenvalues --    3.27089   3.30286   3.30531   3.33015   3.35603
 Alpha virt. eigenvalues --    3.36970   3.38979   3.41133   3.43116   3.47518
 Alpha virt. eigenvalues --    3.47675   3.48470   3.55778   3.56754   3.58261
 Alpha virt. eigenvalues --    3.58314   3.59080   3.60786   3.61842   3.63279
 Alpha virt. eigenvalues --    3.66128   3.68105   3.68391   3.78218   3.78516
 Alpha virt. eigenvalues --    3.80168   3.80466   3.86778   3.89597   3.91029
 Alpha virt. eigenvalues --    3.91251   3.91999   3.93822   3.94750   3.96083
 Alpha virt. eigenvalues --    3.98313   4.01023   4.01681   4.02242   4.02245
 Alpha virt. eigenvalues --    4.08399   4.11315   4.12172   4.12981   4.13539
 Alpha virt. eigenvalues --    4.15068   4.15456   4.19741   4.20723   4.20779
 Alpha virt. eigenvalues --    4.21304   4.23383   4.24188   4.24297   4.26381
 Alpha virt. eigenvalues --    4.28088   4.28482   4.33138   4.37093   4.37177
 Alpha virt. eigenvalues --    4.39749   4.40429   4.40607   4.42544   4.46937
 Alpha virt. eigenvalues --    4.47920   4.48367   4.49891   4.56228   4.57045
 Alpha virt. eigenvalues --    4.62286   4.72830   4.73302   4.73439   4.81301
 Alpha virt. eigenvalues --    4.82284   4.82457   4.87676   4.94745   4.96927
 Alpha virt. eigenvalues --    4.97411   4.97469   4.98047   5.02226   5.03322
 Alpha virt. eigenvalues --    5.03440   5.04825   5.10833   5.10893   5.11509
 Alpha virt. eigenvalues --    5.22527   5.24544   5.32649   5.33454   5.34652
 Alpha virt. eigenvalues --    5.38048   5.38195   5.44957   5.46150   5.51357
 Alpha virt. eigenvalues --    5.51446   5.51755   5.51796   5.54182   5.55524
 Alpha virt. eigenvalues --    5.58691   5.59802   5.63654   5.64454   6.08252
 Alpha virt. eigenvalues --    6.09743   6.10938   6.11197   6.11800   6.13044
 Alpha virt. eigenvalues --   10.64989  10.67434  10.92435  10.96144  11.39725
 Alpha virt. eigenvalues --   11.99151  12.09001  13.59201  13.62016  15.96739
 Alpha virt. eigenvalues --   15.96754  15.98456  15.98855  16.04130  16.04556
 Alpha virt. eigenvalues --   16.17594  16.64990  16.64990  16.65044  16.65047
 Alpha virt. eigenvalues --   16.65062  16.65088  16.65434  16.65441  16.66383
  Beta  occ. eigenvalues -- -353.57667 -44.63021 -39.19710 -39.19704 -39.19352
  Beta  occ. eigenvalues --  -11.42369 -11.42369 -11.40128 -11.40128  -5.90792
  Beta  occ. eigenvalues --   -4.11851  -4.11831  -4.11350  -1.19033  -1.18375
  Beta  occ. eigenvalues --   -1.07060  -1.06633  -1.06222  -1.06216  -1.06026
  Beta  occ. eigenvalues --   -0.99497  -0.97899  -0.79006  -0.78564  -0.72746
  Beta  occ. eigenvalues --   -0.72500  -0.69751  -0.69669  -0.67416  -0.67253
  Beta virt. eigenvalues --   -0.25260  -0.16266  -0.07156  -0.06887  -0.05837
  Beta virt. eigenvalues --   -0.00504   0.03879   0.04681   0.05590   0.05857
  Beta virt. eigenvalues --    0.06221   0.07021   0.08804   0.10069   0.11360
  Beta virt. eigenvalues --    0.11879   0.13797   0.15927   0.16868   0.19129
  Beta virt. eigenvalues --    0.22119   0.22944   0.23902   0.24414   0.24747
  Beta virt. eigenvalues --    0.26131   0.26723   0.30799   0.34393   0.39156
  Beta virt. eigenvalues --    0.40421   0.43439   0.43717   0.44386   0.45194
  Beta virt. eigenvalues --    0.45463   0.46447   0.47326   0.48593   0.50160
  Beta virt. eigenvalues --    0.50492   0.50730   0.51393   0.53102   0.53921
  Beta virt. eigenvalues --    0.55031   0.57751   0.59044   0.59492   0.63424
  Beta virt. eigenvalues --    0.63793   0.69929   0.72174   0.74272   0.77857
  Beta virt. eigenvalues --    0.78204   0.79420   0.81806   0.85313   0.88394
  Beta virt. eigenvalues --    0.88401   0.89787   0.92717   0.93864   0.97135
  Beta virt. eigenvalues --    0.98174   1.00245   1.00539   1.05856   1.06493
  Beta virt. eigenvalues --    1.08193   1.09201   1.10961   1.11303   1.11615
  Beta virt. eigenvalues --    1.12929   1.13987   1.17164   1.18460   1.18840
  Beta virt. eigenvalues --    1.19203   1.19281   1.21012   1.22382   1.25694
  Beta virt. eigenvalues --    1.28449   1.31421   1.32918   1.33497   1.34178
  Beta virt. eigenvalues --    1.35016   1.36208   1.39696   1.40101   1.40700
  Beta virt. eigenvalues --    1.42413   1.45612   1.47225   1.47502   1.53982
  Beta virt. eigenvalues --    1.54917   1.57211   1.59036   1.62928   1.64853
  Beta virt. eigenvalues --    1.73100   1.75075   2.30637   2.32935   2.35162
  Beta virt. eigenvalues --    2.37537   2.42178   2.46592   2.47787   2.48289
  Beta virt. eigenvalues --    2.50315   2.52307   2.55823   2.59028   2.61521
  Beta virt. eigenvalues --    2.61840   2.66593   2.67421   2.69617   2.72698
  Beta virt. eigenvalues --    2.74232   2.74377   2.79085   2.80529   2.82128
  Beta virt. eigenvalues --    2.87747   2.87765   2.90311   2.91433   2.91712
  Beta virt. eigenvalues --    2.91988   2.93253   2.94754   2.96086   2.96560
  Beta virt. eigenvalues --    3.00617   3.01596   3.03284   3.07064   3.09213
  Beta virt. eigenvalues --    3.10737   3.12069   3.12178   3.12477   3.14772
  Beta virt. eigenvalues --    3.16931   3.20219   3.21438   3.21930   3.22219
  Beta virt. eigenvalues --    3.23747   3.25431   3.27640   3.30392   3.32481
  Beta virt. eigenvalues --    3.33066   3.36052   3.37620   3.38469   3.40908
  Beta virt. eigenvalues --    3.42900   3.44341   3.47840   3.47956   3.49191
  Beta virt. eigenvalues --    3.56196   3.56982   3.58583   3.58808   3.59509
  Beta virt. eigenvalues --    3.61227   3.62650   3.63931   3.66841   3.68748
  Beta virt. eigenvalues --    3.69696   3.78917   3.79439   3.80746   3.81868
  Beta virt. eigenvalues --    3.87930   3.89945   3.91607   3.91758   3.92511
  Beta virt. eigenvalues --    3.94429   3.95383   3.97352   3.98911   4.01440
  Beta virt. eigenvalues --    4.02233   4.02814   4.03102   4.09111   4.12311
  Beta virt. eigenvalues --    4.12690   4.13628   4.14338   4.15483   4.15855
  Beta virt. eigenvalues --    4.20899   4.21374   4.21529   4.22122   4.24000
  Beta virt. eigenvalues --    4.24736   4.24865   4.26585   4.28397   4.28846
  Beta virt. eigenvalues --    4.33997   4.37580   4.37780   4.40128   4.40565
  Beta virt. eigenvalues --    4.40762   4.43201   4.47582   4.48369   4.48769
  Beta virt. eigenvalues --    4.50169   4.57167   4.58109   4.63080   4.73544
  Beta virt. eigenvalues --    4.74188   4.74384   4.82041   4.82917   4.83102
  Beta virt. eigenvalues --    4.88993   4.95778   4.97228   4.97720   4.97782
  Beta virt. eigenvalues --    4.98553   5.02821   5.03796   5.03917   5.05493
  Beta virt. eigenvalues --    5.11406   5.11916   5.12207   5.23133   5.25462
  Beta virt. eigenvalues --    5.33309   5.34113   5.35544   5.38491   5.39074
  Beta virt. eigenvalues --    5.45329   5.46438   5.51864   5.51963   5.52067
  Beta virt. eigenvalues --    5.52176   5.54483   5.56024   5.59075   5.60177
  Beta virt. eigenvalues --    5.64360   5.65230   6.09002   6.09993   6.11233
  Beta virt. eigenvalues --    6.11387   6.12193   6.13836  10.65175  10.67619
  Beta virt. eigenvalues --   10.92646  10.96370  11.41176  12.00805  12.10660
  Beta virt. eigenvalues --   13.59253  13.62065  15.96844  15.96859  15.98536
  Beta virt. eigenvalues --   15.98937  16.05179  16.05600  16.19114  16.64955
  Beta virt. eigenvalues --   16.64956  16.64993  16.64993  16.65175  16.65206
  Beta virt. eigenvalues --   16.65780  16.65786  16.66824
          Condensed to atoms (all electrons):
               1          2          3          4          5          6
     1  Zn  30.522865  -0.466179   0.000877  -0.007605  -0.006911  -0.002784
     2  C   -0.466179   5.579648   0.320746   0.417015   0.417308  -0.015038
     3  C    0.000877   0.320746   4.812370  -0.033043  -0.033297   0.399484
     4  H   -0.007605   0.417015  -0.033043   0.486556  -0.032051  -0.002867
     5  H   -0.006911   0.417308  -0.033297  -0.032051   0.485464  -0.002910
     6  H   -0.002784  -0.015038   0.399484  -0.002867  -0.002910   0.491874
     7  H   -0.010206  -0.025708   0.416586  -0.004148   0.004487  -0.021800
     8  H   -0.010575  -0.026246   0.416346   0.004574  -0.004192  -0.021717
     9  C   -0.466179   0.035102  -0.000367   0.000304   0.000256   0.000013
    10  C    0.000877  -0.000367  -0.000015  -0.000018  -0.000033   0.000000
    11  H   -0.007605   0.000304  -0.000018  -0.000014   0.000022   0.000001
    12  H   -0.006911   0.000256  -0.000033   0.000022   0.000008   0.000001
    13  H   -0.002784   0.000013   0.000000   0.000001   0.000001   0.000000
    14  H   -0.010206   0.000318  -0.000005   0.000017   0.000007   0.000000
    15  H   -0.010575   0.000330  -0.000004  -0.000003   0.000037   0.000000
               7          8          9         10         11         12
     1  Zn  -0.010206  -0.010575  -0.466179   0.000877  -0.007605  -0.006911
     2  C   -0.025708  -0.026246   0.035102  -0.000367   0.000304   0.000256
     3  C    0.416586   0.416346  -0.000367  -0.000015  -0.000018  -0.000033
     4  H   -0.004148   0.004574   0.000304  -0.000018  -0.000014   0.000022
     5  H    0.004487  -0.004192   0.000256  -0.000033   0.000022   0.000008
     6  H   -0.021800  -0.021717   0.000013   0.000000   0.000001   0.000001
     7  H    0.532080  -0.030260   0.000318  -0.000005   0.000017   0.000007
     8  H   -0.030260   0.533970   0.000330  -0.000004  -0.000003   0.000037
     9  C    0.000318   0.000330   5.579648   0.320746   0.417015   0.417308
    10  C   -0.000005  -0.000004   0.320746   4.812370  -0.033043  -0.033297
    11  H    0.000017  -0.000003   0.417015  -0.033043   0.486556  -0.032051
    12  H    0.000007   0.000037   0.417308  -0.033297  -0.032051   0.485464
    13  H    0.000000   0.000000  -0.015038   0.399484  -0.002867  -0.002910
    14  H    0.000001   0.000001  -0.025708   0.416586  -0.004148   0.004487
    15  H    0.000001  -0.000001  -0.026246   0.416346   0.004574  -0.004192
              13         14         15
     1  Zn  -0.002784  -0.010206  -0.010575
     2  C    0.000013   0.000318   0.000330
     3  C    0.000000  -0.000005  -0.000004
     4  H    0.000001   0.000017  -0.000003
     5  H    0.000001   0.000007   0.000037
     6  H    0.000000   0.000000   0.000000
     7  H    0.000000   0.000001   0.000001
     8  H    0.000000   0.000001  -0.000001
     9  C   -0.015038  -0.025708  -0.026246
    10  C    0.399484   0.416586   0.416346
    11  H   -0.002867  -0.004148   0.004574
    12  H   -0.002910   0.004487  -0.004192
    13  H    0.491874  -0.021800  -0.021717
    14  H   -0.021800   0.532080  -0.030260
    15  H   -0.021717  -0.030260   0.533970
          Atomic-Atomic Spin Densities.
               1          2          3          4          5          6
     1  Zn   2.541402  -0.505061  -0.002210  -0.013756  -0.013979  -0.004415
     2  C   -0.505061   1.256611  -0.033473   0.017762   0.017963  -0.011683
     3  C   -0.002210  -0.033473  -0.032107   0.002998   0.003035   0.016804
     4  H   -0.013756   0.017762   0.002998  -0.023085   0.005586  -0.001283
     5  H   -0.013979   0.017963   0.003035   0.005586  -0.022964  -0.001295
     6  H   -0.004415  -0.011683   0.016804  -0.001283  -0.001295   0.068409
     7  H   -0.012099   0.002421   0.004710   0.000592   0.000187  -0.002432
     8  H   -0.012393   0.002432   0.004748   0.000191   0.000604  -0.002436
     9  C   -0.505061   0.035499  -0.000325   0.000344   0.000334   0.000009
    10  C   -0.002210  -0.000325   0.000009   0.000001   0.000011   0.000000
    11  H   -0.013756   0.000344   0.000001   0.000007   0.000004   0.000000
    12  H   -0.013979   0.000334   0.000011   0.000004   0.000005   0.000000
    13  H   -0.004415   0.000009   0.000000   0.000000   0.000000   0.000000
    14  H   -0.012099   0.000305  -0.000001   0.000006   0.000007   0.000000
    15  H   -0.012393   0.000324  -0.000002   0.000003   0.000011   0.000000
               7          8          9         10         11         12
     1  Zn  -0.012099  -0.012393  -0.505061  -0.002210  -0.013756  -0.013979
     2  C    0.002421   0.002432   0.035499  -0.000325   0.000344   0.000334
     3  C    0.004710   0.004748  -0.000325   0.000009   0.000001   0.000011
     4  H    0.000592   0.000191   0.000344   0.000001   0.000007   0.000004
     5  H    0.000187   0.000604   0.000334   0.000011   0.000004   0.000005
     6  H   -0.002432  -0.002436   0.000009   0.000000   0.000000   0.000000
     7  H    0.008101   0.000660   0.000305  -0.000001   0.000006   0.000007
     8  H    0.000660   0.008397   0.000324  -0.000002   0.000003   0.000011
     9  C    0.000305   0.000324   1.256611  -0.033473   0.017762   0.017963
    10  C   -0.000001  -0.000002  -0.033473  -0.032107   0.002998   0.003035
    11  H    0.000006   0.000003   0.017762   0.002998  -0.023085   0.005586
    12  H    0.000007   0.000011   0.017963   0.003035   0.005586  -0.022964
    13  H    0.000000   0.000000  -0.011683   0.016804  -0.001283  -0.001295
    14  H    0.000001   0.000001   0.002421   0.004710   0.000592   0.000187
    15  H    0.000001   0.000002   0.002432   0.004748   0.000191   0.000604
              13         14         15
     1  Zn  -0.004415  -0.012099  -0.012393
     2  C    0.000009   0.000305   0.000324
     3  C    0.000000  -0.000001  -0.000002
     4  H    0.000000   0.000006   0.000003
     5  H    0.000000   0.000007   0.000011
     6  H    0.000000   0.000000   0.000000
     7  H    0.000000   0.000001   0.000001
     8  H    0.000000   0.000001   0.000002
     9  C   -0.011683   0.002421   0.002432
    10  C    0.016804   0.004710   0.004748
    11  H   -0.001283   0.000592   0.000191
    12  H   -0.001295   0.000187   0.000604
    13  H    0.068409  -0.002432  -0.002436
    14  H   -0.002432   0.008101   0.000660
    15  H   -0.002436   0.000660   0.008397
 Mulliken charges and spin densities:
               1          2
     1  Zn   0.483900   1.413574
     2  C   -0.237502   0.783461
     3  C   -0.299627  -0.035802
     4  H    0.171261  -0.010631
     5  H    0.171804  -0.010494
     6  H    0.175745   0.061678
     7  H    0.138631   0.002459
     8  H    0.137739   0.002542
     9  C   -0.237502   0.783461
    10  C   -0.299627  -0.035802
    11  H    0.171261  -0.010631
    12  H    0.171804  -0.010494
    13  H    0.175745   0.061678
    14  H    0.138631   0.002459
    15  H    0.137739   0.002542
 Sum of Mulliken charges =   1.00000   3.00000
 Mulliken charges and spin densities with hydrogens summed into heavy atoms:
               1          2
     1  Zn   0.483900   1.413574
     2  C    0.105563   0.762337
     3  C    0.152487   0.030876
     9  C    0.105563   0.762337
    10  C    0.152487   0.030876
 Electronic spatial extent (au):  <R**2>=            939.4843
 Charge=              1.0000 electrons
 Dipole moment (field-independent basis, Debye):
    X=              0.0000    Y=              0.0000    Z=             -0.0034  Tot=              0.0034
 Quadrupole moment (field-independent basis, Debye-Ang):
   XX=            -37.9829   YY=            -15.7142   ZZ=            -40.8651
   XY=              5.3802   XZ=              0.0000   YZ=              0.0000
 Traceless Quadrupole moment (field-independent basis, Debye-Ang):
   XX=             -6.4622   YY=             15.8066   ZZ=             -9.3443
   XY=              5.3802   XZ=              0.0000   YZ=              0.0000
 Octapole moment (field-independent basis, Debye-Ang**2):
  XXX=              0.0000  YYY=              0.0000  ZZZ=              1.9763  XYY=              0.0000
  XXY=              0.0000  XXZ=             -0.4459  XZZ=              0.0000  YZZ=              0.0000
  YYZ=             -0.9573  XYZ=             -1.6785
 Hexadecapole moment (field-independent basis, Debye-Ang**3):
 XXXX=           -249.4532 YYYY=           -705.6851 ZZZZ=            -97.5636 XXXY=           -131.7489
 XXXZ=              0.0000 YYYX=            -89.5061 YYYZ=              0.0000 ZZZX=              0.0000
 ZZZY=              0.0000 XXYY=           -164.7131 XXZZ=            -55.6816 YYZZ=           -165.8367
 XXYZ=              0.0000 YYXZ=              0.0000 ZZXY=            -49.9633
 N-N= 3.207392817687D+02 E-N=-5.253331490168D+03  KE= 1.935090727352D+03
 Symmetry A    KE= 1.418050004923D+03
 Symmetry B    KE= 5.170407224287D+02
 1\1\GINC-GAMBA\SP\UCCSD(T)-FC\Gen\C4H10Zn1(1+,4)\IRIKURA\18-May-2017\0
 \\# CCSD(T,maxcyc=100)/GEN gfinput geom=check scf=xqc guess=check\\BEB
  step 7: high-spin CCSD(T) for cation of ZnEt2\\1,4\Zn,0,0.,0.,0.09205
 9\C,0,0.,1.933945,0.090127\C,0,1.360973,2.577345,-0.233751\H,0,-0.3465
 94,2.294125,1.069841\H,0,-0.75069,2.294418,-0.628225\H,0,1.311324,3.67
 5407,-0.22301\H,0,2.134924,2.28887,0.488877\H,0,1.727459,2.287037,-1.2
 26622\C,0,0.,-1.933945,0.090127\C,0,-1.360973,-2.577345,-0.233751\H,0,
 0.346594,-2.294125,1.069841\H,0,0.75069,-2.294418,-0.628225\H,0,-1.311
 324,-3.675407,-0.22301\H,0,-2.134924,-2.28887,0.488877\H,0,-1.727459,-
 2.287037,-1.226622\\Version=ES64L-G09RevD.01\State=4-B\HF=-1934.673568
 2\MP2=-1935.8426729\MP3=-1935.8352441\MP4D=-1935.8683224\MP4DQ=-1935.8
 52788\PUHF=-1934.6767987\PMP2-0=-1935.8446378\PMP3-0=-1935.8364183\MP4
 SDQ=-1935.8650818\CCSD=-1935.8585149\CCSD(T)=-1935.9008256\S2=3.76933\
 S2-1=3.754085\S2A=3.750181\RMSD=4.746e-09\PG=C02 [C2(Zn1),X(C4H10)]\\@


 CONTRAIWISE...CONTINUED TWEEDLEDEE, IF IT WAS SO, IT MIGHT BE,
 AND IF IT WERE SO, IT WOULD BE.....
 BUT AS IT ISN'T, IT AIN'T....
 THAT'S LOGIC.....
 ALICE THROUGH THE LOOKING GLASS
 Job cpu time:       2 days  1 hours 12 minutes 55.8 seconds.
 File lengths (MBytes):  RWF=  11924 Int=      0 D2E=      0 Chk=      9 Scr=      1
 Normal termination of Gaussian 09 at Thu May 18 19:29:39 2017.
