 Entering Gaussian System, Link 0=g09
 Initial command:
 /usr/local/apps/g09/l1.exe "/wrk/irikura/Gau-22899.inp" -scrdir="/wrk/irikura/"
 Entering Link 1 = /usr/local/apps/g09/l1.exe PID=     22901.
  
 Copyright (c) 1988,1990,1992,1993,1995,1998,2003,2009,2013,
            Gaussian, Inc.  All Rights Reserved.
  
 This is part of the Gaussian(R) 09 program.  It is based on
 the Gaussian(R) 03 system (copyright 2003, Gaussian, Inc.),
 the Gaussian(R) 98 system (copyright 1998, Gaussian, Inc.),
 the Gaussian(R) 94 system (copyright 1995, Gaussian, Inc.),
 the Gaussian 92(TM) system (copyright 1992, Gaussian, Inc.),
 the Gaussian 90(TM) system (copyright 1990, Gaussian, Inc.),
 the Gaussian 88(TM) system (copyright 1988, Gaussian, Inc.),
 the Gaussian 86(TM) system (copyright 1986, Carnegie Mellon
 University), and the Gaussian 82(TM) system (copyright 1983,
 Carnegie Mellon University). Gaussian is a federally registered
 trademark of Gaussian, Inc.
  
 This software contains proprietary and confidential information,
 including trade secrets, belonging to Gaussian, Inc.
  
 This software is provided under written license and may be
 used, copied, transmitted, or stored only in accord with that
 written license.
  
 The following legend is applicable only to US Government
 contracts under FAR:
  
                    RESTRICTED RIGHTS LEGEND
  
 Use, reproduction and disclosure by the US Government is
 subject to restrictions as set forth in subparagraphs (a)
 and (c) of the Commercial Computer Software - Restricted
 Rights clause in FAR 52.227-19.
  
 Gaussian, Inc.
 340 Quinnipiac St., Bldg. 40, Wallingford CT 06492
  
  
 ---------------------------------------------------------------
 Warning -- This program may not be used in any manner that
 competes with the business of Gaussian, Inc. or will provide
 assistance to any competitor of Gaussian, Inc.  The licensee
 of this program is prohibited from giving any competitor of
 Gaussian, Inc. access to this program.  By using this program,
 the user acknowledges that Gaussian, Inc. is engaged in the
 business of creating and licensing software in the field of
 computational chemistry and represents and warrants to the
 licensee that it is not a competitor of Gaussian, Inc. and that
 it will not use this program in any manner prohibited above.
 ---------------------------------------------------------------
  

 Cite this work as:
 Gaussian 09, Revision D.01,
 M. J. Frisch, G. W. Trucks, H. B. Schlegel, G. E. Scuseria, 
 M. A. Robb, J. R. Cheeseman, G. Scalmani, V. Barone, B. Mennucci, 
 G. A. Petersson, H. Nakatsuji, M. Caricato, X. Li, H. P. Hratchian, 
 A. F. Izmaylov, J. Bloino, G. Zheng, J. L. Sonnenberg, M. Hada, 
 M. Ehara, K. Toyota, R. Fukuda, J. Hasegawa, M. Ishida, T. Nakajima, 
 Y. Honda, O. Kitao, H. Nakai, T. Vreven, J. A. Montgomery, Jr., 
 J. E. Peralta, F. Ogliaro, M. Bearpark, J. J. Heyd, E. Brothers, 
 K. N. Kudin, V. N. Staroverov, T. Keith, R. Kobayashi, J. Normand, 
 K. Raghavachari, A. Rendell, J. C. Burant, S. S. Iyengar, J. Tomasi, 
 M. Cossi, N. Rega, J. M. Millam, M. Klene, J. E. Knox, J. B. Cross, 
 V. Bakken, C. Adamo, J. Jaramillo, R. Gomperts, R. E. Stratmann, 
 O. Yazyev, A. J. Austin, R. Cammi, C. Pomelli, J. W. Ochterski, 
 R. L. Martin, K. Morokuma, V. G. Zakrzewski, G. A. Voth, 
 P. Salvador, J. J. Dannenberg, S. Dapprich, A. D. Daniels, 
 O. Farkas, J. B. Foresman, J. V. Ortiz, J. Cioslowski, 
 and D. J. Fox, Gaussian, Inc., Wallingford CT, 2013.
 
 ******************************************
 Gaussian 09:  ES64L-G09RevD.01 24-Apr-2013
                19-May-2017 
 ******************************************
 %chk=ZnEt2.chk
 %nprocs=8
 Will use up to    8 processors via shared memory.
 %mem=2000mw
 ---------------------------------------------------------------
 # CCSD(T,maxcyc=100)/GEN gfinput geom=check scf=xqc guess=check
 ---------------------------------------------------------------
 1/29=2,38=1/1;
 2/12=2,40=1/2;
 3/5=7,11=9,14=-4,16=1,24=10,25=1,30=1,116=-2/1,2,3;
 4/5=1/1;
 5/5=2,8=3,13=1,38=6/2,8;
 8/6=4,9=120000,10=1/1,4;
 9/5=7,6=100,14=2/13;
 6/7=2,8=2,9=2,10=2/1;
 99/5=1,9=1/99;
 ---------------------------------------------------
 BEB step 9: high-spin CCSD(T) for dication of ZnEt2
 ---------------------------------------------------
 Structure from the checkpoint file:  "ZnEt2.chk"
 Charge =  2 Multiplicity = 3
 Redundant internal coordinates found in file.
 Zn,0,0.,0.,0.092059
 C,0,0.,1.933945,0.090127
 C,0,1.360973,2.577345,-0.233751
 H,0,-0.346594,2.294125,1.069841
 H,0,-0.75069,2.294418,-0.628225
 H,0,1.311324,3.675407,-0.22301
 H,0,2.134924,2.28887,0.488877
 H,0,1.727459,2.287037,-1.226622
 C,0,0.,-1.933945,0.090127
 C,0,-1.360973,-2.577345,-0.233751
 H,0,0.346594,-2.294125,1.069841
 H,0,0.75069,-2.294418,-0.628225
 H,0,-1.311324,-3.675407,-0.22301
 H,0,-2.134924,-2.28887,0.488877
 H,0,-1.727459,-2.287037,-1.226622
 Recover connectivity data from disk.
                          Input orientation:                          
 ---------------------------------------------------------------------
 Center     Atomic      Atomic             Coordinates (Angstroms)
 Number     Number       Type             X           Y           Z
 ---------------------------------------------------------------------
      1         30           0        0.000000    0.000000    0.092059
      2          6           0        0.000000    1.933945    0.090127
      3          6           0        1.360973    2.577345   -0.233751
      4          1           0       -0.346594    2.294125    1.069841
      5          1           0       -0.750690    2.294418   -0.628225
      6          1           0        1.311324    3.675407   -0.223010
      7          1           0        2.134924    2.288870    0.488877
      8          1           0        1.727459    2.287037   -1.226622
      9          6           0        0.000000   -1.933945    0.090127
     10          6           0       -1.360973   -2.577345   -0.233751
     11          1           0        0.346594   -2.294125    1.069841
     12          1           0        0.750690   -2.294418   -0.628225
     13          1           0       -1.311324   -3.675407   -0.223010
     14          1           0       -2.134924   -2.288870    0.488877
     15          1           0       -1.727459   -2.287037   -1.226622
 ---------------------------------------------------------------------
                    Distance matrix (angstroms):
                    1          2          3          4          5
     1  Zn   0.000000
     2  C    1.933946   0.000000
     3  C    2.932764   1.539840   0.000000
     4  H    2.517776   1.099862   2.166876   0.000000
     5  H    2.519265   1.099775   2.166744   1.745486   0.000000
     6  H    3.915029   2.202343   1.099236   2.515571   2.514604
     7  H    3.155042   2.200653   1.097456   2.548623   3.094304
     8  H    3.154928   2.200595   1.097444   3.094429   2.549383
     9  C    1.933946   3.867890   4.723228   4.353911   4.354150
    10  C    2.932764   4.723228   5.829221   5.143883   4.925660
    11  H    2.517776   4.353911   5.143883   4.640318   5.014199
    12  H    2.519265   4.354150   4.925660   5.014199   4.828204
    13  H    3.915029   5.769095   6.799867   6.183646   6.009769
    14  H    3.155042   4.748586   6.035191   4.953735   4.916355
    15  H    3.154928   4.747066   5.846915   5.307313   4.722487
                    6          7          8          9         10
     6  H    0.000000
     7  H    1.762834   0.000000
     8  H    1.762945   1.763227   0.000000
     9  C    5.769095   4.748586   4.747066   0.000000
    10  C    6.799867   6.035191   5.846915   1.539840   0.000000
    11  H    6.183646   4.953735   5.307313   1.099862   2.166876
    12  H    6.009769   4.916355   4.722487   1.099775   2.166744
    13  H    7.804662   6.925028   6.766992   2.202343   1.099236
    14  H    6.925028   6.259976   6.228954   2.200653   1.097456
    15  H    6.766992   6.228954   5.732243   2.200595   1.097444
                   11         12         13         14         15
    11  H    0.000000
    12  H    1.745486   0.000000
    13  H    2.515571   2.514604   0.000000
    14  H    2.548623   3.094304   1.762834   0.000000
    15  H    3.094429   2.549383   1.762945   1.763227   0.000000
 Stoichiometry    C4H10Zn(2+,3)
 Framework group  C2[C2(Zn),X(C4H10)]
 Deg. of freedom    20
 Full point group                 C2      NOp   2
 Largest Abelian subgroup         C2      NOp   2
 Largest concise Abelian subgroup C2      NOp   2
                         Standard orientation:                         
 ---------------------------------------------------------------------
 Center     Atomic      Atomic             Coordinates (Angstroms)
 Number     Number       Type             X           Y           Z
 ---------------------------------------------------------------------
      1         30           0        0.000000    0.000000    0.092059
      2          6           0        0.000000    1.933945    0.090127
      3          6           0        1.360973    2.577345   -0.233751
      4          1           0       -0.346594    2.294125    1.069841
      5          1           0       -0.750690    2.294418   -0.628225
      6          1           0        1.311324    3.675407   -0.223010
      7          1           0        2.134924    2.288870    0.488877
      8          1           0        1.727459    2.287037   -1.226622
      9          6           0        0.000000   -1.933945    0.090127
     10          6           0       -1.360973   -2.577345   -0.233751
     11          1           0        0.346594   -2.294125    1.069841
     12          1           0        0.750690   -2.294418   -0.628225
     13          1           0       -1.311324   -3.675407   -0.223010
     14          1           0       -2.134924   -2.288870    0.488877
     15          1           0       -1.727459   -2.287037   -1.226622
 ---------------------------------------------------------------------
 Rotational constants (GHZ):     14.6723335      1.3797086      1.3187032
 General basis read from cards:  (5D, 7F)
 AO basis set in the form of general basis input (Overlap normalization):
      1 0
 S  14 1.00       0.000000000000
      0.5820021000D+07  0.8542885478D-05
      0.8715234000D+06  0.6642467562D-04
      0.1983350000D+06  0.3492362619D-03
      0.5617631000D+05  0.1472734312D-02
      0.1832582000D+05  0.5334339797D-02
      0.6614955000D+04  0.1711415094D-01
      0.2579199000D+04  0.4890302932D-01
      0.1068849000D+04  0.1216940687D+00
      0.4651045000D+03  0.2474323562D+00
      0.2104130000D+03  0.3578277267D+00
      0.9761629000D+02  0.2793442886D+00
      0.4438020000D+02  0.6868263222D-01
      0.1030891000D+02  0.3221701162D-02
      0.4553645000D+01 -0.7817474491D-03
 S  11 1.00       0.000000000000
      0.1832582000D+05 -0.6322839183D-05
      0.6614955000D+04 -0.6785222718D-04
      0.2579199000D+04 -0.5492543552D-03
      0.1068849000D+04 -0.3394157516D-02
      0.4651045000D+03 -0.1667671016D-01
      0.2104130000D+03 -0.5842591737D-01
      0.9761629000D+02 -0.1043750636D+00
      0.4438020000D+02  0.6355596026D-01
      0.2142308000D+02  0.5002009850D+00
      0.1030891000D+02  0.4781904256D+00
      0.4553645000D+01  0.8587611250D-01
 S  10 1.00       0.000000000000
      0.1832582000D+05 -0.8548270921D-06
      0.2579199000D+04 -0.1228626536D-04
      0.4651045000D+03 -0.1407868226D-03
      0.9761629000D+02 -0.4495773745D-03
      0.2142308000D+02 -0.6128804275D-02
      0.1030891000D+02  0.4154271565D-01
      0.4553645000D+01 -0.2894462579D+00
      0.2132821000D+01 -0.9361090165D-01
      0.9296970000D+00  0.1377489710D+01
      0.1921470000D+00 -0.1362868603D+01
 S   8 1.00       0.000000000000
      0.4651045000D+03 -0.7160119717D-05
      0.9761629000D+02 -0.2253209183D-04
      0.2142308000D+02 -0.1194939508D-02
      0.4553645000D+01 -0.1518081215D-01
      0.2132821000D+01  0.4513884670D-01
      0.9296970000D+00  0.2683958730D+00
      0.1921470000D+00 -0.4736441984D+00
      0.8759500000D-01 -0.6770952844D+00
 S  11 1.00       0.000000000000
      0.1832582000D+05  0.5609979057D-05
      0.6614955000D+04 -0.2573925820D-05
      0.2579199000D+04  0.7815859322D-04
      0.4651045000D+03  0.9576420082D-03
      0.2104130000D+03  0.7011261585D-03
      0.9761629000D+02  0.6552647950D-02
      0.4438020000D+02 -0.8815197364D-02
      0.2142308000D+02 -0.2453803490D-01
      0.1030891000D+02 -0.1203210329D+00
      0.4553645000D+01  0.1524538980D+00
      0.1921470000D+00  0.9781229693D+00
 S  11 1.00       0.000000000000
      0.1832582000D+05 -0.8564366277D-05
      0.6614955000D+04  0.3681138252D-05
      0.2579199000D+04 -0.1202612026D-03
      0.4651045000D+03 -0.1371070220D-02
      0.9761629000D+02 -0.5254556873D-02
      0.4438020000D+02  0.1268610915D-01
      0.2142308000D+02 -0.9696597388D-01
      0.1030891000D+02 -0.1771136145D+00
      0.4553645000D+01  0.1664222468D+00
      0.2132821000D+01  0.1003959530D+01
      0.1921470000D+00 -0.8141051538D+00
 S   1 1.00       0.000000000000
      0.3770200000D-01  0.1000000000D+01
 P  11 1.00       0.000000000000
      0.2441198000D+05  0.4105114657D-04
      0.5778518000D+04  0.3614546896D-03
      0.1876862000D+04  0.2090656696D-02
      0.7182361000D+03  0.9232712648D-02
      0.3048327000D+03  0.3281554506D-01
      0.1390453000D+03  0.9430366596D-01
      0.6680417000D+02  0.2094234333D+00
      0.3320699000D+02  0.3350550786D+00
      0.1692816000D+02  0.3308607794D+00
      0.8696229000D+01  0.1521709559D+00
      0.4350510000D+01  0.2172615146D-01
 P  10 1.00       0.000000000000
      0.5778518000D+04 -0.8877851708D-05
      0.7182361000D+03 -0.2441030315D-03
      0.3048327000D+03 -0.5407590074D-04
      0.1390453000D+03 -0.3043274181D-02
      0.6680417000D+02 -0.5430271958D-03
      0.3320699000D+02 -0.1903663998D-01
      0.1692816000D+02  0.2539021175D-01
      0.8696229000D+01 -0.3141338769D-01
      0.4350510000D+01 -0.2816228848D-01
      0.9953870000D+00  0.1020816268D+01
 P   9 1.00       0.000000000000
      0.7182361000D+03  0.2668890615D-05
      0.3048327000D+03 -0.3374783888D-05
      0.6680417000D+02 -0.1584306381D-03
      0.1692816000D+02  0.9899985402D-03
      0.4350510000D+01 -0.2699464774D-01
      0.2116523000D+01 -0.1249115445D-01
      0.9953870000D+00  0.7256894641D-01
      0.3781120000D+00  0.3829943468D+00
      0.1345790000D+00  0.6530286935D+00
 P   9 1.00       0.000000000000
      0.7182361000D+03  0.9390726746D-05
      0.3048327000D+03 -0.1185545227D-04
      0.6680417000D+02 -0.5108126233D-03
      0.1692816000D+02  0.3945575099D-02
      0.8696229000D+01  0.5580351718D-02
      0.4350510000D+01 -0.8244475427D-01
      0.2116523000D+01  0.9105007379D-02
      0.9953870000D+00  0.3337692793D+00
      0.3781120000D+00  0.7431532920D+00
 P  10 1.00       0.000000000000
      0.5778518000D+04 -0.7802763863D-05
      0.7182361000D+03 -0.1693919350D-03
      0.3048327000D+03  0.3159389680D-03
      0.6680417000D+02  0.1017184620D-01
      0.3320699000D+02  0.1254561776D-01
      0.1692816000D+02  0.5085111829D-01
      0.8696229000D+01 -0.1745632491D+00
      0.4350510000D+01 -0.5575487626D+00
      0.2116523000D+01 -0.6695223776D+00
      0.9953870000D+00  0.4927371878D+00
 P   1 1.00       0.000000000000
      0.4628200000D-01  0.1000000000D+01
 D   5 1.00       0.000000000000
      0.6144981000D+02 -0.1627069828D-02
      0.2305689000D+02 -0.5645739998D-02
      0.9577739000D+01 -0.7107323650D-01
      0.4133734000D+01  0.2883883047D+00
      0.1747518000D+01  0.8015717485D+00
 D   5 1.00       0.000000000000
      0.6144981000D+02 -0.9057168371D-03
      0.9577739000D+01 -0.2245656133D-01
      0.4133734000D+01  0.1050357490D+00
      0.1747518000D+01 -0.8282428294D-01
      0.6995600000D+00 -0.9692942320D+00
 D   5 1.00       0.000000000000
      0.2056177000D+03  0.4818927105D-02
      0.6144981000D+02  0.3917234290D-01
      0.2305689000D+02  0.1635410151D+00
      0.9577739000D+01  0.4643636076D+00
      0.4133734000D+01  0.4884185612D+00
 D   1 1.00       0.000000000000
      0.2516080000D+00  0.1000000000D+01
 F   1 1.00       0.000000000000
      0.5792200000D+01  0.1000000000D+01
 F   1 1.00       0.000000000000
      0.1485100000D+01  0.1000000000D+01
 G   1 1.00       0.000000000000
      0.4114400000D+01  0.1000000000D+01
 ****
      2 0
 S   7 1.00       0.000000000000
      0.8236000000D+04  0.5419783203D-03
      0.1235000000D+04  0.4192873817D-02
      0.2808000000D+03  0.2152216205D-01
      0.7927000000D+02  0.8353432195D-01
      0.2559000000D+02  0.2395828457D+00
      0.8997000000D+01  0.4428528419D+00
      0.3319000000D+01  0.3517995618D+00
 S   6 1.00       0.000000000000
      0.2808000000D+03 -0.5949224937D-04
      0.7927000000D+02 -0.1148158310D-02
      0.2559000000D+02 -0.1001913745D-01
      0.8997000000D+01 -0.6121949230D-01
      0.3319000000D+01 -0.1732698541D+00
      0.3643000000D+00  0.1072915192D+01
 S   1 1.00       0.000000000000
      0.9059000000D+00  0.1000000000D+01
 S   1 1.00       0.000000000000
      0.1285000000D+00  0.1000000000D+01
 P   3 1.00       0.000000000000
      0.1871000000D+02  0.3942638716D-01
      0.4133000000D+01  0.2440889849D+00
      0.1200000000D+01  0.8154920089D+00
 P   1 1.00       0.000000000000
      0.3827000000D+00  0.1000000000D+01
 P   1 1.00       0.000000000000
      0.1209000000D+00  0.1000000000D+01
 D   1 1.00       0.000000000000
      0.1097000000D+01  0.1000000000D+01
 D   1 1.00       0.000000000000
      0.3180000000D+00  0.1000000000D+01
 F   1 1.00       0.000000000000
      0.7610000000D+00  0.1000000000D+01
 ****
      3 0
 S   7 1.00       0.000000000000
      0.8236000000D+04  0.5419783203D-03
      0.1235000000D+04  0.4192873817D-02
      0.2808000000D+03  0.2152216205D-01
      0.7927000000D+02  0.8353432195D-01
      0.2559000000D+02  0.2395828457D+00
      0.8997000000D+01  0.4428528419D+00
      0.3319000000D+01  0.3517995618D+00
 S   6 1.00       0.000000000000
      0.2808000000D+03 -0.5949224937D-04
      0.7927000000D+02 -0.1148158310D-02
      0.2559000000D+02 -0.1001913745D-01
      0.8997000000D+01 -0.6121949230D-01
      0.3319000000D+01 -0.1732698541D+00
      0.3643000000D+00  0.1072915192D+01
 S   1 1.00       0.000000000000
      0.9059000000D+00  0.1000000000D+01
 S   1 1.00       0.000000000000
      0.1285000000D+00  0.1000000000D+01
 P   3 1.00       0.000000000000
      0.1871000000D+02  0.3942638716D-01
      0.4133000000D+01  0.2440889849D+00
      0.1200000000D+01  0.8154920089D+00
 P   1 1.00       0.000000000000
      0.3827000000D+00  0.1000000000D+01
 P   1 1.00       0.000000000000
      0.1209000000D+00  0.1000000000D+01
 D   1 1.00       0.000000000000
      0.1097000000D+01  0.1000000000D+01
 D   1 1.00       0.000000000000
      0.3180000000D+00  0.1000000000D+01
 F   1 1.00       0.000000000000
      0.7610000000D+00  0.1000000000D+01
 ****
      4 0
 S   3 1.00       0.000000000000
      0.3387000000D+02  0.2549486323D-01
      0.5095000000D+01  0.1903627659D+00
      0.1159000000D+01  0.8521620222D+00
 S   1 1.00       0.000000000000
      0.3258000000D+00  0.1000000000D+01
 S   1 1.00       0.000000000000
      0.1027000000D+00  0.1000000000D+01
 P   1 1.00       0.000000000000
      0.1407000000D+01  0.1000000000D+01
 P   1 1.00       0.000000000000
      0.3880000000D+00  0.1000000000D+01
 D   1 1.00       0.000000000000
      0.1057000000D+01  0.1000000000D+01
 ****
      5 0
 S   3 1.00       0.000000000000
      0.3387000000D+02  0.2549486323D-01
      0.5095000000D+01  0.1903627659D+00
      0.1159000000D+01  0.8521620222D+00
 S   1 1.00       0.000000000000
      0.3258000000D+00  0.1000000000D+01
 S   1 1.00       0.000000000000
      0.1027000000D+00  0.1000000000D+01
 P   1 1.00       0.000000000000
      0.1407000000D+01  0.1000000000D+01
 P   1 1.00       0.000000000000
      0.3880000000D+00  0.1000000000D+01
 D   1 1.00       0.000000000000
      0.1057000000D+01  0.1000000000D+01
 ****
      6 0
 S   3 1.00       0.000000000000
      0.3387000000D+02  0.2549486323D-01
      0.5095000000D+01  0.1903627659D+00
      0.1159000000D+01  0.8521620222D+00
 S   1 1.00       0.000000000000
      0.3258000000D+00  0.1000000000D+01
 S   1 1.00       0.000000000000
      0.1027000000D+00  0.1000000000D+01
 P   1 1.00       0.000000000000
      0.1407000000D+01  0.1000000000D+01
 P   1 1.00       0.000000000000
      0.3880000000D+00  0.1000000000D+01
 D   1 1.00       0.000000000000
      0.1057000000D+01  0.1000000000D+01
 ****
      7 0
 S   3 1.00       0.000000000000
      0.3387000000D+02  0.2549486323D-01
      0.5095000000D+01  0.1903627659D+00
      0.1159000000D+01  0.8521620222D+00
 S   1 1.00       0.000000000000
      0.3258000000D+00  0.1000000000D+01
 S   1 1.00       0.000000000000
      0.1027000000D+00  0.1000000000D+01
 P   1 1.00       0.000000000000
      0.1407000000D+01  0.1000000000D+01
 P   1 1.00       0.000000000000
      0.3880000000D+00  0.1000000000D+01
 D   1 1.00       0.000000000000
      0.1057000000D+01  0.1000000000D+01
 ****
      8 0
 S   3 1.00       0.000000000000
      0.3387000000D+02  0.2549486323D-01
      0.5095000000D+01  0.1903627659D+00
      0.1159000000D+01  0.8521620222D+00
 S   1 1.00       0.000000000000
      0.3258000000D+00  0.1000000000D+01
 S   1 1.00       0.000000000000
      0.1027000000D+00  0.1000000000D+01
 P   1 1.00       0.000000000000
      0.1407000000D+01  0.1000000000D+01
 P   1 1.00       0.000000000000
      0.3880000000D+00  0.1000000000D+01
 D   1 1.00       0.000000000000
      0.1057000000D+01  0.1000000000D+01
 ****
      9 0
 S   7 1.00       0.000000000000
      0.8236000000D+04  0.5419783203D-03
      0.1235000000D+04  0.4192873817D-02
      0.2808000000D+03  0.2152216205D-01
      0.7927000000D+02  0.8353432195D-01
      0.2559000000D+02  0.2395828457D+00
      0.8997000000D+01  0.4428528419D+00
      0.3319000000D+01  0.3517995618D+00
 S   6 1.00       0.000000000000
      0.2808000000D+03 -0.5949224937D-04
      0.7927000000D+02 -0.1148158310D-02
      0.2559000000D+02 -0.1001913745D-01
      0.8997000000D+01 -0.6121949230D-01
      0.3319000000D+01 -0.1732698541D+00
      0.3643000000D+00  0.1072915192D+01
 S   1 1.00       0.000000000000
      0.9059000000D+00  0.1000000000D+01
 S   1 1.00       0.000000000000
      0.1285000000D+00  0.1000000000D+01
 P   3 1.00       0.000000000000
      0.1871000000D+02  0.3942638716D-01
      0.4133000000D+01  0.2440889849D+00
      0.1200000000D+01  0.8154920089D+00
 P   1 1.00       0.000000000000
      0.3827000000D+00  0.1000000000D+01
 P   1 1.00       0.000000000000
      0.1209000000D+00  0.1000000000D+01
 D   1 1.00       0.000000000000
      0.1097000000D+01  0.1000000000D+01
 D   1 1.00       0.000000000000
      0.3180000000D+00  0.1000000000D+01
 F   1 1.00       0.000000000000
      0.7610000000D+00  0.1000000000D+01
 ****
     10 0
 S   7 1.00       0.000000000000
      0.8236000000D+04  0.5419783203D-03
      0.1235000000D+04  0.4192873817D-02
      0.2808000000D+03  0.2152216205D-01
      0.7927000000D+02  0.8353432195D-01
      0.2559000000D+02  0.2395828457D+00
      0.8997000000D+01  0.4428528419D+00
      0.3319000000D+01  0.3517995618D+00
 S   6 1.00       0.000000000000
      0.2808000000D+03 -0.5949224937D-04
      0.7927000000D+02 -0.1148158310D-02
      0.2559000000D+02 -0.1001913745D-01
      0.8997000000D+01 -0.6121949230D-01
      0.3319000000D+01 -0.1732698541D+00
      0.3643000000D+00  0.1072915192D+01
 S   1 1.00       0.000000000000
      0.9059000000D+00  0.1000000000D+01
 S   1 1.00       0.000000000000
      0.1285000000D+00  0.1000000000D+01
 P   3 1.00       0.000000000000
      0.1871000000D+02  0.3942638716D-01
      0.4133000000D+01  0.2440889849D+00
      0.1200000000D+01  0.8154920089D+00
 P   1 1.00       0.000000000000
      0.3827000000D+00  0.1000000000D+01
 P   1 1.00       0.000000000000
      0.1209000000D+00  0.1000000000D+01
 D   1 1.00       0.000000000000
      0.1097000000D+01  0.1000000000D+01
 D   1 1.00       0.000000000000
      0.3180000000D+00  0.1000000000D+01
 F   1 1.00       0.000000000000
      0.7610000000D+00  0.1000000000D+01
 ****
     11 0
 S   3 1.00       0.000000000000
      0.3387000000D+02  0.2549486323D-01
      0.5095000000D+01  0.1903627659D+00
      0.1159000000D+01  0.8521620222D+00
 S   1 1.00       0.000000000000
      0.3258000000D+00  0.1000000000D+01
 S   1 1.00       0.000000000000
      0.1027000000D+00  0.1000000000D+01
 P   1 1.00       0.000000000000
      0.1407000000D+01  0.1000000000D+01
 P   1 1.00       0.000000000000
      0.3880000000D+00  0.1000000000D+01
 D   1 1.00       0.000000000000
      0.1057000000D+01  0.1000000000D+01
 ****
     12 0
 S   3 1.00       0.000000000000
      0.3387000000D+02  0.2549486323D-01
      0.5095000000D+01  0.1903627659D+00
      0.1159000000D+01  0.8521620222D+00
 S   1 1.00       0.000000000000
      0.3258000000D+00  0.1000000000D+01
 S   1 1.00       0.000000000000
      0.1027000000D+00  0.1000000000D+01
 P   1 1.00       0.000000000000
      0.1407000000D+01  0.1000000000D+01
 P   1 1.00       0.000000000000
      0.3880000000D+00  0.1000000000D+01
 D   1 1.00       0.000000000000
      0.1057000000D+01  0.1000000000D+01
 ****
     13 0
 S   3 1.00       0.000000000000
      0.3387000000D+02  0.2549486323D-01
      0.5095000000D+01  0.1903627659D+00
      0.1159000000D+01  0.8521620222D+00
 S   1 1.00       0.000000000000
      0.3258000000D+00  0.1000000000D+01
 S   1 1.00       0.000000000000
      0.1027000000D+00  0.1000000000D+01
 P   1 1.00       0.000000000000
      0.1407000000D+01  0.1000000000D+01
 P   1 1.00       0.000000000000
      0.3880000000D+00  0.1000000000D+01
 D   1 1.00       0.000000000000
      0.1057000000D+01  0.1000000000D+01
 ****
     14 0
 S   3 1.00       0.000000000000
      0.3387000000D+02  0.2549486323D-01
      0.5095000000D+01  0.1903627659D+00
      0.1159000000D+01  0.8521620222D+00
 S   1 1.00       0.000000000000
      0.3258000000D+00  0.1000000000D+01
 S   1 1.00       0.000000000000
      0.1027000000D+00  0.1000000000D+01
 P   1 1.00       0.000000000000
      0.1407000000D+01  0.1000000000D+01
 P   1 1.00       0.000000000000
      0.3880000000D+00  0.1000000000D+01
 D   1 1.00       0.000000000000
      0.1057000000D+01  0.1000000000D+01
 ****
     15 0
 S   3 1.00       0.000000000000
      0.3387000000D+02  0.2549486323D-01
      0.5095000000D+01  0.1903627659D+00
      0.1159000000D+01  0.8521620222D+00
 S   1 1.00       0.000000000000
      0.3258000000D+00  0.1000000000D+01
 S   1 1.00       0.000000000000
      0.1027000000D+00  0.1000000000D+01
 P   1 1.00       0.000000000000
      0.1407000000D+01  0.1000000000D+01
 P   1 1.00       0.000000000000
      0.3880000000D+00  0.1000000000D+01
 D   1 1.00       0.000000000000
      0.1057000000D+01  0.1000000000D+01
 ****

 There are   191 symmetry adapted cartesian basis functions of A   symmetry.
 There are   183 symmetry adapted cartesian basis functions of B   symmetry.
 There are   166 symmetry adapted basis functions of A   symmetry.
 There are   162 symmetry adapted basis functions of B   symmetry.
   328 basis functions,   725 primitive gaussians,   374 cartesian basis functions
    32 alpha electrons       30 beta electrons
       nuclear repulsion energy       320.7392817687 Hartrees.
 NAtoms=   15 NActive=   15 NUniq=    8 SFac= 3.52D+00 NAtFMM=   60 NAOKFM=F Big=F
 Integral buffers will be    131072 words long.
 Raffenetti 2 integral format.
 Two-electron integral symmetry is turned on.
 One-electron integrals computed using PRISM.
 NBasis=   328 RedAO= T EigKep=  6.20D-04  NBF=   166   162
 NBsUse=   328 1.00D-06 EigRej= -1.00D+00 NBFU=   166   162
 Initial guess from the checkpoint file:  "ZnEt2.chk"
 B after Tr=     0.000000    0.000000    0.000000
         Rot=    1.000000    0.000000    0.000000    0.000000 Ang=   0.00 deg.
 Initial guess orbital symmetries:
 Alpha Orbitals:
       Occupied  (A) (A) (B) (A) (B) (B) (A) (A) (B) (A) (B) (B)
                 (A) (A) (B) (A) (B) (B) (A) (A) (B) (A) (A) (B)
                 (A) (B) (B) (A) (A) (B) (A) (B)
       Virtual   (B) (A) (A) (B) (A) (A) (B) (A) (A) (B) (B) (B)
                 (A) (A) (B) (A) (B) (A) (B) (A) (B) (A) (B) (B)
                 (A) (B) (A) (B) (A) (B) (A) (A) (B) (B) (B) (A)
                 (B) (A) (B) (A) (A) (A) (B) (A) (B) (A) (B) (A)
                 (B) (B) (A) (A) (B) (A) (B) (A) (B) (A) (B) (B)
                 (A) (B) (A) (B) (B) (A) (A) (B) (A) (B) (B) (A)
                 (B) (A) (A) (A) (B) (B) (B) (A) (B) (A) (A) (A)
                 (A) (B) (B) (A) (B) (A) (A) (B) (B) (A) (A) (B)
                 (B) (A) (A) (B) (B) (A) (B) (A) (B) (B) (A) (B)
                 (A) (A) (B) (A) (B) (A) (B) (A) (B) (B) (A) (A)
                 (B) (B) (A) (A) (B) (B) (A) (A) (A) (B) (B) (B)
                 (A) (B) (A) (B) (A) (A) (A) (B) (B) (B) (A) (A)
                 (B) (A) (B) (B) (A) (B) (A) (A) (B) (A) (B) (B)
                 (A) (B) (A) (A) (B) (A) (B) (B) (A) (A) (B) (A)
                 (A) (B) (A) (B) (A) (B) (A) (B) (B) (A) (B) (A)
                 (B) (B) (A) (A) (B) (A) (B) (B) (B) (A) (A) (A)
                 (B) (A) (B) (A) (A) (B) (A) (B) (B) (B) (A) (A)
                 (B) (A) (B) (A) (B) (A) (A) (B) (B) (A) (B) (A)
                 (A) (B) (A) (B) (B) (A) (A) (B) (A) (B) (B) (A)
                 (B) (A) (B) (A) (B) (A) (B) (A) (A) (B) (B) (A)
                 (A) (B) (B) (A) (B) (A) (B) (A) (A) (B) (B) (A)
                 (B) (B) (A) (B) (A) (A) (B) (B) (A) (A) (B) (A)
                 (B) (B) (A) (A) (B) (B) (A) (B) (A) (B) (A) (A)
                 (A) (B) (B) (A) (A) (B) (B) (A) (A) (B) (B) (A)
                 (B) (B) (A) (A) (B) (A) (B) (A)
 Beta  Orbitals:
       Occupied  (A) (A) (B) (A) (B) (B) (A) (B) (A) (A) (B) (A)
                 (B) (A) (B) (A) (B) (A) (B) (A) (B) (A) (A) (B)
                 (B) (A) (B) (A) (A) (B)
       Virtual   (B) (A) (B) (A) (A) (B) (A) (A) (B) (A) (B) (B)
                 (A) (B) (A) (A) (B) (A) (B) (A) (B) (A) (B) (B)
                 (A) (B) (A) (B) (A) (B) (A) (B) (A) (A) (B) (B)
                 (B) (A) (B) (A) (B) (A) (A) (B) (A) (A) (B) (A)
                 (B) (A) (B) (B) (A) (A) (A) (B) (B) (A) (B) (A)
                 (B) (B) (A) (B) (A) (B) (B) (A) (A) (B) (A) (B)
                 (B) (A) (B) (A) (A) (A) (B) (B) (B) (A) (B) (A)
                 (A) (A) (A) (B) (B) (A) (B) (A) (A) (B) (B) (A)
                 (A) (B) (B) (A) (A) (B) (B) (A) (B) (A) (B) (B)
                 (A) (B) (A) (A) (B) (A) (B) (A) (B) (A) (B) (B)
                 (A) (A) (B) (B) (A) (A) (B) (B) (A) (A) (A) (B)
                 (B) (B) (A) (B) (A) (B) (A) (A) (A) (B) (B) (B)
                 (A) (A) (B) (A) (B) (B) (A) (B) (A) (A) (B) (A)
                 (B) (B) (A) (B) (A) (A) (B) (A) (B) (B) (A) (A)
                 (B) (A) (A) (B) (A) (B) (A) (B) (A) (B) (B) (A)
                 (B) (A) (B) (B) (A) (A) (B) (A) (B) (B) (B) (A)
                 (A) (A) (B) (A) (B) (A) (A) (B) (A) (B) (B) (B)
                 (A) (A) (B) (A) (B) (A) (B) (A) (A) (B) (B) (A)
                 (B) (A) (A) (B) (A) (B) (B) (A) (A) (B) (A) (B)
                 (B) (A) (B) (A) (B) (A) (B) (A) (B) (A) (A) (B)
                 (B) (A) (A) (B) (B) (A) (B) (A) (B) (A) (A) (B)
                 (B) (A) (B) (B) (A) (B) (A) (A) (B) (B) (A) (A)
                 (B) (A) (B) (B) (A) (A) (B) (B) (A) (B) (A) (B)
                 (A) (A) (A) (B) (B) (A) (A) (B) (B) (A) (A) (B)
                 (B) (A) (B) (B) (A) (A) (B) (A) (B) (A)
 Initial guess <Sx>= 0.0000 <Sy>= 0.0000 <Sz>= 1.0000 <S**2>= 2.0054 S= 1.0018
 Requested convergence on RMS density matrix=1.00D-08 within  64 cycles.
 Requested convergence on MAX density matrix=1.00D-06.
 Requested convergence on             energy=1.00D-06.
 No special actions if energy rises.
 SCF Done:  E(UHF) =  -1934.37219044     A.U. after   15 cycles
            NFock= 15  Conv=0.60D-08     -V/T= 2.0000
 <Sx>= 0.0000 <Sy>= 0.0000 <Sz>= 1.0000 <S**2>= 2.0201 S= 1.0067
 <L.S>= 0.000000000000E+00
 Annihilation of the first spin contaminant:
 S**2 before annihilation     2.0201,   after     2.0003
 QCSCF skips out because SCF is already converged.
 ExpMin= 3.77D-02 ExpMax= 5.82D+06 ExpMxC= 6.61D+03 IAcc=3 IRadAn=         5 AccDes= 0.00D+00
 HarFok:  IExCor=  205 AccDes= 0.00D+00 IRadAn=         5 IDoV=-2 UseB2=F ITyADJ=14
 ICtDFT= 12500011 ScaDFX=  1.000000  1.000000  1.000000  1.000000
 Range of M.O.s used for correlation:    14   328
 NBasis=   328 NAE=    32 NBE=    30 NFC=    13 NFV=     0
 NROrb=    315 NOA=    19 NOB=    17 NVA=   296 NVB=   298

 **** Warning!!: The largest alpha MO coefficient is  0.11841557D+02


 **** Warning!!: The largest beta MO coefficient is  0.11578606D+02

 Semi-Direct transformation.
 ModeAB=           4 MOrb=            19 LenV=    2093890181
 LASXX=    142808310 LTotXX=   142808310 LenRXX=   287490672
 LTotAB=   144682362 MaxLAS=   199330425 LenRXY=           0
 NonZer=   430298982 LenScr=   647980032 LnRSAI=   199330425
 LnScr1=   300168192 LExtra=           0 Total=   1434969321
 MaxDsk=          -1 SrtSym=           T ITran=            4
 JobTyp=1 Pass  1:  I=   1 to  19.
 (rs|ai) integrals will be sorted in core.
 ModeAB=           4 MOrb=            17 LenV=    2093890181
 LASXX=    128283862 LTotXX=   128283862 LenRXX=   242987869
 LTotAB=   114704007 MaxLAS=   178348275 LenRXY=           0
 NonZer=   371271731 LenScr=   559091712 LnRSAI=   178348275
 LnScr1=   268571648 LExtra=           0 Total=   1248999504
 MaxDsk=          -1 SrtSym=           T ITran=            4
 JobTyp=2 Pass  1:  I=   1 to  17.
 (rs|ai) integrals will be sorted in core.
 Spin components of T(2) and E(2):
     alpha-alpha T2 =       0.3915621060D-01 E2=     -0.1738945181D+00
     alpha-beta  T2 =       0.2026504346D+00 E2=     -0.8339742960D+00
     beta-beta   T2 =       0.3262004109D-01 E2=     -0.1466580554D+00
 ANorm=    0.1128905083D+01
 E2 =    -0.1154526869D+01 EUMP2 =    -0.19355267173095D+04
 (S**2,0)=  0.20201D+01           (S**2,1)=  0.20035D+01
 E(PUHF)=      -0.19343763226D+04        E(PMP2)=      -0.19355291580D+04
 Would need an additional        86502355 words for in-memory AO integral storage.
 Iterations= 100 Convergence= 0.100D-06
 Iteration Nr.   1
 **********************
 DD1Dir will call FoFJK   1 times, MxPair=       954
 NAB=   323 NAA=   171 NBB=   136 NumPrc=  8.
 FoFJK:  IHMeth= 1 ICntrl=     200 DoSepK=F KAlg= 0 I1Cent=   0 FoldK=F
 IRaf= 990000000 NMat= 953 IRICut=    1575 DoRegI=T DoRafI=T ISym2E=-1.
 FoFCou: FMM=F IPFlag=           0 FMFlag=      100000 FMFlg1=           0
         NFxFlg=           0 DoJE=F BraDBF=F KetDBF=F FulRan=T
         wScrn=  0.000000 ICntrl=     200 IOpCl=  0 I1Cent=           0 NGrid=           0
         NMat0=  953 NMatS0=      0 NMatT0=  323 NMatD0=  953 NMtDS0=    0 NMtDT0=    0
 Petite list used in FoFCou.
 E(PMP3)=      -0.19355197808D+04
 MP4(R+Q)=  0.15158967D-01
 E3=        0.83831361D-02        EUMP3=      -0.19355183342D+04
 E4(DQ)=   -0.17651113D-01        UMP4(DQ)=   -0.19355359853D+04
 E4(SDQ)=  -0.29958368D-01        UMP4(SDQ)=  -0.19355482925D+04
 DE(Corr)=  -1.1304256     E(Corr)=     -1935.5026160    
 NORM(A)=   0.11391985D+01
 Iteration Nr.   2
 **********************
 DD1Dir will call FoFJK   1 times, MxPair=       954
 NAB=   323 NAA=   171 NBB=   136 NumPrc=  8.
 DE(Corr)=  -1.1655279     E(CORR)=     -1935.5377184     Delta=-3.51D-02
 NORM(A)=   0.11517384D+01
 Iteration Nr.   3
 **********************
 DD1Dir will call FoFJK   1 times, MxPair=       954
 NAB=   323 NAA=   171 NBB=   136 NumPrc=  8.
 DE(Corr)=  -1.1646958     E(CORR)=     -1935.5368862     Delta= 8.32D-04
 NORM(A)=   0.11592888D+01
 Iteration Nr.   4
 **********************
 DD1Dir will call FoFJK   1 times, MxPair=       954
 NAB=   323 NAA=   171 NBB=   136 NumPrc=  8.
 DE(Corr)=  -1.1690188     E(CORR)=     -1935.5412092     Delta=-4.32D-03
 NORM(A)=   0.11663692D+01
 Iteration Nr.   5
 **********************
 DD1Dir will call FoFJK   1 times, MxPair=       954
 NAB=   323 NAA=   171 NBB=   136 NumPrc=  8.
 DE(Corr)=  -1.1703441     E(CORR)=     -1935.5425346     Delta=-1.33D-03
 NORM(A)=   0.11720147D+01
 Iteration Nr.   6
 **********************
 DD1Dir will call FoFJK   1 times, MxPair=       954
 NAB=   323 NAA=   171 NBB=   136 NumPrc=  8.
 DE(Corr)=  -1.1708555     E(CORR)=     -1935.5430459     Delta=-5.11D-04
 NORM(A)=   0.11741410D+01
 Iteration Nr.   7
 **********************
 DD1Dir will call FoFJK   1 times, MxPair=       954
 NAB=   323 NAA=   171 NBB=   136 NumPrc=  8.
 DE(Corr)=  -1.1709897     E(CORR)=     -1935.5431801     Delta=-1.34D-04
 NORM(A)=   0.11746108D+01
 Iteration Nr.   8
 **********************
 DD1Dir will call FoFJK   1 times, MxPair=       954
 NAB=   323 NAA=   171 NBB=   136 NumPrc=  8.
 DE(Corr)=  -1.1709536     E(CORR)=     -1935.5431440     Delta= 3.61D-05
 NORM(A)=   0.11749644D+01
 Iteration Nr.   9
 **********************
 DD1Dir will call FoFJK   1 times, MxPair=       954
 NAB=   323 NAA=   171 NBB=   136 NumPrc=  8.
 DE(Corr)=  -1.1710060     E(CORR)=     -1935.5431964     Delta=-5.24D-05
 NORM(A)=   0.11751065D+01
 Iteration Nr.  10
 **********************
 DD1Dir will call FoFJK   1 times, MxPair=       954
 NAB=   323 NAA=   171 NBB=   136 NumPrc=  8.
 DE(Corr)=  -1.1709704     E(CORR)=     -1935.5431608     Delta= 3.56D-05
 NORM(A)=   0.11751195D+01
 Iteration Nr.  11
 **********************
 DD1Dir will call FoFJK   1 times, MxPair=       954
 NAB=   323 NAA=   171 NBB=   136 NumPrc=  8.
 DE(Corr)=  -1.1710136     E(CORR)=     -1935.5432041     Delta=-4.33D-05
 NORM(A)=   0.11751665D+01
 Iteration Nr.  12
 **********************
 DD1Dir will call FoFJK   1 times, MxPair=       954
 NAB=   323 NAA=   171 NBB=   136 NumPrc=  8.
 DE(Corr)=  -1.1710003     E(CORR)=     -1935.5431908     Delta= 1.33D-05
 NORM(A)=   0.11752026D+01
 Iteration Nr.  13
 **********************
 DD1Dir will call FoFJK   1 times, MxPair=       954
 NAB=   323 NAA=   171 NBB=   136 NumPrc=  8.
 DE(Corr)=  -1.1710074     E(CORR)=     -1935.5431978     Delta=-7.08D-06
 NORM(A)=   0.11752513D+01
 Iteration Nr.  14
 **********************
 DD1Dir will call FoFJK   1 times, MxPair=       954
 NAB=   323 NAA=   171 NBB=   136 NumPrc=  8.
 DE(Corr)=  -1.1710114     E(CORR)=     -1935.5432018     Delta=-4.00D-06
 NORM(A)=   0.11752944D+01
 Iteration Nr.  15
 **********************
 DD1Dir will call FoFJK   1 times, MxPair=       954
 NAB=   323 NAA=   171 NBB=   136 NumPrc=  8.
 DE(Corr)=  -1.1710140     E(CORR)=     -1935.5432045     Delta=-2.63D-06
 NORM(A)=   0.11753316D+01
 Iteration Nr.  16
 **********************
 DD1Dir will call FoFJK   1 times, MxPair=       954
 NAB=   323 NAA=   171 NBB=   136 NumPrc=  8.
 DE(Corr)=  -1.1710201     E(CORR)=     -1935.5432105     Delta=-6.08D-06
 NORM(A)=   0.11753588D+01
 Iteration Nr.  17
 **********************
 DD1Dir will call FoFJK   1 times, MxPair=       954
 NAB=   323 NAA=   171 NBB=   136 NumPrc=  8.
 DE(Corr)=  -1.1710203     E(CORR)=     -1935.5432107     Delta=-1.58D-07
 NORM(A)=   0.11753699D+01
 Iteration Nr.  18
 **********************
 DD1Dir will call FoFJK   1 times, MxPair=       954
 NAB=   323 NAA=   171 NBB=   136 NumPrc=  8.
 DE(Corr)=  -1.1710225     E(CORR)=     -1935.5432130     Delta=-2.27D-06
 NORM(A)=   0.11753762D+01
 Iteration Nr.  19
 **********************
 DD1Dir will call FoFJK   1 times, MxPair=       954
 NAB=   323 NAA=   171 NBB=   136 NumPrc=  8.
 DE(Corr)=  -1.1710223     E(CORR)=     -1935.5432128     Delta= 2.01D-07
 NORM(A)=   0.11753786D+01
 Iteration Nr.  20
 **********************
 DD1Dir will call FoFJK   1 times, MxPair=       954
 NAB=   323 NAA=   171 NBB=   136 NumPrc=  8.
 DE(Corr)=  -1.1710224     E(CORR)=     -1935.5432129     Delta=-1.04D-07
 NORM(A)=   0.11753803D+01
 Iteration Nr.  21
 **********************
 DD1Dir will call FoFJK   1 times, MxPair=       954
 NAB=   323 NAA=   171 NBB=   136 NumPrc=  8.
 DE(Corr)=  -1.1710224     E(CORR)=     -1935.5432129     Delta= 3.39D-10
 NORM(A)=   0.11753810D+01
 Iteration Nr.  22
 **********************
 DD1Dir will call FoFJK   1 times, MxPair=       954
 NAB=   323 NAA=   171 NBB=   136 NumPrc=  8.
 DE(Corr)=  -1.1710222     E(CORR)=     -1935.5432126     Delta= 2.46D-07
 NORM(A)=   0.11753820D+01
 Iteration Nr.  23
 **********************
 DD1Dir will call FoFJK   1 times, MxPair=       954
 NAB=   323 NAA=   171 NBB=   136 NumPrc=  8.
 DE(Corr)=  -1.1710225     E(CORR)=     -1935.5432130     Delta=-3.39D-07
 NORM(A)=   0.11753830D+01
 Iteration Nr.  24
 **********************
 DD1Dir will call FoFJK   1 times, MxPair=       954
 NAB=   323 NAA=   171 NBB=   136 NumPrc=  8.
 DE(Corr)=  -1.1710225     E(CORR)=     -1935.5432129     Delta= 6.79D-08
 NORM(A)=   0.11753842D+01
 Iteration Nr.  25
 **********************
 DD1Dir will call FoFJK   1 times, MxPair=       954
 NAB=   323 NAA=   171 NBB=   136 NumPrc=  8.
 DE(Corr)=  -1.1710227     E(CORR)=     -1935.5432131     Delta=-2.07D-07
 NORM(A)=   0.11753850D+01
 Iteration Nr.  26
 **********************
 DD1Dir will call FoFJK   1 times, MxPair=       954
 NAB=   323 NAA=   171 NBB=   136 NumPrc=  8.
 DE(Corr)=  -1.1710227     E(CORR)=     -1935.5432132     Delta=-4.74D-08
 NORM(A)=   0.11753855D+01
 Iteration Nr.  27
 **********************
 DD1Dir will call FoFJK   1 times, MxPair=       954
 NAB=   323 NAA=   171 NBB=   136 NumPrc=  8.
 DE(Corr)=  -1.1710228     E(CORR)=     -1935.5432132     Delta=-4.66D-08
 NORM(A)=   0.11753863D+01
 Dominant configurations:
 ***********************
 Spin Case        I    J    A    B          Value
    BB           27        31           -0.153543D+00
    BB           28        32            0.118777D+00
 Largest amplitude= 1.54D-01
 Time for triples=    56649.82 seconds.
 T4(CCSD)= -0.44979876D-01
 T5(CCSD)=  0.31327337D-02
 CCSD(T)= -0.19355850604D+04

 S**2, projected HF & approx projected MPn energies after annihilation of
 unwanted spin states (see manual for definitions):

 spins       (S**2,0) (S**2,1)    PUHF        PMP2        PMP3        PMP4
 annihilated
 s+1         1.99987  2.00015-1934.376323-1935.529155-1935.519776
 s+1,s+2     2.00000  2.00000-1934.376295-1935.529135-1935.519761
 s+1 to s+3  2.00000  2.00000-1934.376295-1935.529135-1935.519761
 s+1 to s+4  2.00000  2.00000-1934.376295-1935.529135-1935.519761
 s+1 to s+5  2.00000  2.00000-1934.376295
 s+1 to s+6  2.00000  2.00000-1934.376295

 Discarding MO integrals.

 **********************************************************************

            Population analysis using the SCF density.

 **********************************************************************

 Orbital symmetries:
 Alpha Orbitals:
       Occupied  (A) (A) (B) (A) (B) (B) (A) (A) (B) (A) (B) (A)
                 (B) (A) (B) (A) (B) (A) (B) (A) (B) (A) (A) (B)
                 (A) (B) (A) (B) (A) (A) (B) (B)
       Virtual   (B) (A) (A) (B) (A) (A) (B) (A) (B) (A) (B) (B)
                 (A) (A) (B) (A) (B) (A) (B) (B) (A) (A) (B) (B)
                 (A) (B) (A) (B) (B) (A) (A) (B) (A) (B) (B) (A)
                 (A) (B) (A) (B) (A) (A) (A) (B) (B) (A) (B) (A)
                 (B) (B) (A) (A) (B) (A) (B) (A) (B) (A) (B) (B)
                 (A) (B) (A) (B) (B) (A) (A) (B) (A) (B) (B) (A)
                 (B) (A) (A) (A) (B) (B) (B) (A) (B) (A) (A) (A)
                 (B) (A) (B) (A) (A) (B) (A) (B) (B) (A) (A) (B)
                 (B) (A) (A) (B) (B) (A) (B) (A) (B) (B) (A) (B)
                 (A) (A) (B) (A) (B) (A) (B) (B) (A) (A) (B) (A)
                 (B) (B) (A) (A) (B) (B) (A) (A) (A) (B) (B) (B)
                 (A) (B) (A) (B) (A) (A) (A) (B) (B) (B) (A) (A)
                 (A) (B) (B) (B) (A) (B) (A) (A) (B) (A) (B) (B)
                 (A) (A) (B) (A) (B) (A) (B) (B) (A) (A) (B) (A)
                 (A) (B) (B) (A) (A) (B) (A) (B) (B) (B) (A) (B)
                 (A) (A) (B) (A) (B) (B) (A) (B) (B) (A) (A) (A)
                 (A) (B) (B) (A) (B) (A) (A) (B) (B) (B) (A) (A)
                 (B) (A) (B) (A) (A) (B) (A) (B) (B) (A) (A) (B)
                 (A) (B) (A) (B) (B) (A) (A) (B) (B) (A) (B) (A)
                 (B) (A) (B) (A) (B) (A) (B) (A) (A) (B) (B) (A)
                 (A) (B) (B) (A) (B) (A) (B) (A) (B) (A) (B) (B)
                 (A) (B) (A) (B) (A) (B) (A) (B) (A) (A) (B) (A)
                 (B) (B) (A) (A) (B) (B) (A) (B) (A) (B) (A) (A)
                 (A) (B) (B) (A) (A) (B) (B) (A) (A) (B) (B) (A)
                 (B) (B) (A) (A) (B) (B) (A) (A)
 Beta  Orbitals:
       Occupied  (A) (A) (A) (B) (B) (A) (B) (A) (B) (A) (B) (A)
                 (B) (A) (B) (A) (B) (A) (B) (A) (B) (A) (A) (B)
                 (B) (A) (A) (B) (A) (B)
       Virtual   (A) (B) (B) (A) (A) (B) (A) (A) (B) (B) (A) (A)
                 (B) (B) (A) (A) (B) (A) (B) (A) (B) (A) (B) (B)
                 (A) (B) (A) (B) (A) (B) (A) (B) (A) (A) (B) (B)
                 (B) (A) (A) (B) (B) (A) (A) (A) (B) (A) (B) (A)
                 (B) (A) (B) (B) (A) (A) (B) (A) (B) (A) (B) (A)
                 (B) (B) (A) (B) (A) (B) (B) (A) (A) (B) (A) (B)
                 (B) (A) (B) (A) (A) (A) (B) (B) (B) (A) (B) (A)
                 (A) (A) (A) (B) (B) (A) (B) (A) (A) (B) (B) (A)
                 (A) (B) (B) (A) (A) (B) (B) (A) (B) (A) (B) (B)
                 (A) (B) (A) (A) (B) (A) (B) (A) (B) (A) (B) (A)
                 (B) (A) (B) (B) (A) (A) (B) (B) (A) (A) (A) (B)
                 (B) (B) (A) (B) (A) (B) (A) (A) (A) (B) (B) (B)
                 (A) (A) (A) (B) (B) (B) (A) (B) (A) (A) (B) (A)
                 (B) (B) (A) (A) (B) (A) (B) (A) (B) (B) (A) (A)
                 (B) (A) (A) (B) (B) (A) (A) (B) (A) (B) (B) (A)
                 (B) (B) (A) (B) (A) (A) (B) (B) (A) (B) (B) (A)
                 (A) (A) (A) (B) (A) (B) (B) (A) (A) (B) (B) (B)
                 (A) (A) (B) (A) (B) (A) (A) (B) (A) (B) (B) (A)
                 (A) (B) (A) (B) (A) (B) (B) (A) (A) (B) (B) (A)
                 (B) (A) (B) (A) (B) (A) (B) (A) (B) (A) (A) (B)
                 (B) (A) (A) (B) (B) (A) (B) (A) (B) (A) (B) (A)
                 (B) (B) (A) (B) (A) (B) (A) (B) (A) (B) (A) (A)
                 (B) (A) (B) (B) (A) (A) (B) (B) (A) (B) (A) (B)
                 (A) (A) (A) (B) (B) (A) (A) (B) (B) (A) (A) (B)
                 (B) (A) (B) (B) (A) (A) (B) (B) (A) (A)
 The electronic state is 3-B.
 Alpha  occ. eigenvalues -- -353.82850 -44.88271 -39.44746 -39.44742 -39.44624
 Alpha  occ. eigenvalues --  -11.65638 -11.65637 -11.57080 -11.57080  -6.16425
 Alpha  occ. eigenvalues --   -4.37511  -4.36481  -4.36478  -1.43848  -1.41606
 Alpha  occ. eigenvalues --   -1.31956  -1.31579  -1.31075  -1.31012  -1.30994
 Alpha  occ. eigenvalues --   -1.22103  -1.20822  -0.99159  -0.98448  -0.98181
 Alpha  occ. eigenvalues --   -0.96775  -0.89893  -0.89544  -0.85352  -0.85326
 Alpha  occ. eigenvalues --   -0.85187  -0.83178
 Alpha virt. eigenvalues --   -0.28899  -0.28807  -0.27795  -0.16584  -0.14189
 Alpha virt. eigenvalues --   -0.13468  -0.11521  -0.10237  -0.09900  -0.09506
 Alpha virt. eigenvalues --   -0.07541  -0.05627  -0.05258  -0.03612  -0.03309
 Alpha virt. eigenvalues --   -0.01444  -0.00468   0.00780   0.05136   0.06176
 Alpha virt. eigenvalues --    0.06624   0.07028   0.08012   0.08793   0.09476
 Alpha virt. eigenvalues --    0.12417   0.13208   0.18949   0.22921   0.23113
 Alpha virt. eigenvalues --    0.24691   0.24814   0.26087   0.26989   0.27564
 Alpha virt. eigenvalues --    0.28913   0.30468   0.31403   0.32880   0.32937
 Alpha virt. eigenvalues --    0.34803   0.35944   0.37022   0.37637   0.38089
 Alpha virt. eigenvalues --    0.39016   0.40171   0.44288   0.45914   0.51484
 Alpha virt. eigenvalues --    0.53316   0.54918   0.58099   0.60209   0.62125
 Alpha virt. eigenvalues --    0.63504   0.64031   0.65293   0.66979   0.69268
 Alpha virt. eigenvalues --    0.76007   0.76669   0.77930   0.79007   0.82865
 Alpha virt. eigenvalues --    0.82982   0.87982   0.88115   0.89431   0.91462
 Alpha virt. eigenvalues --    0.93012   0.93161   0.93680   0.94088   0.95164
 Alpha virt. eigenvalues --    0.97440   1.00184   1.01680   1.02314   1.02620
 Alpha virt. eigenvalues --    1.03391   1.03883   1.06470   1.08465   1.10924
 Alpha virt. eigenvalues --    1.11330   1.15625   1.16365   1.17468   1.17817
 Alpha virt. eigenvalues --    1.21927   1.22151   1.24495   1.25927   1.27280
 Alpha virt. eigenvalues --    1.28460   1.29048   1.35723   1.37306   1.38195
 Alpha virt. eigenvalues --    1.41167   1.46012   1.47425   1.54783   1.56426
 Alpha virt. eigenvalues --    2.12894   2.15375   2.15893   2.18607   2.23136
 Alpha virt. eigenvalues --    2.28083   2.28967   2.29893   2.31533   2.34314
 Alpha virt. eigenvalues --    2.36280   2.37287   2.39055   2.39805   2.47407
 Alpha virt. eigenvalues --    2.47741   2.50004   2.52575   2.52922   2.54151
 Alpha virt. eigenvalues --    2.56019   2.58674   2.59698   2.65552   2.66130
 Alpha virt. eigenvalues --    2.69842   2.71781   2.72931   2.73074   2.74265
 Alpha virt. eigenvalues --    2.75037   2.75661   2.78160   2.81738   2.82320
 Alpha virt. eigenvalues --    2.84177   2.87484   2.91271   2.91858   2.92228
 Alpha virt. eigenvalues --    2.93937   2.94500   2.95707   2.97358   3.00143
 Alpha virt. eigenvalues --    3.02672   3.04569   3.04620   3.05735   3.06056
 Alpha virt. eigenvalues --    3.07872   3.08514   3.11726   3.12389   3.14160
 Alpha virt. eigenvalues --    3.16696   3.19310   3.21275   3.23413   3.25355
 Alpha virt. eigenvalues --    3.29613   3.31469   3.31592   3.37525   3.39618
 Alpha virt. eigenvalues --    3.41278   3.41648   3.42153   3.42759   3.44528
 Alpha virt. eigenvalues --    3.46007   3.48685   3.50469   3.50844   3.59898
 Alpha virt. eigenvalues --    3.61202   3.62221   3.62735   3.68424   3.72164
 Alpha virt. eigenvalues --    3.73307   3.74214   3.74740   3.75886   3.77009
 Alpha virt. eigenvalues --    3.78210   3.80824   3.83606   3.83976   3.84933
 Alpha virt. eigenvalues --    3.85011   3.88841   3.88906   3.89569   3.92866
 Alpha virt. eigenvalues --    3.94659   3.96835   3.97316   3.99559   3.99659
 Alpha virt. eigenvalues --    4.01746   4.02832   4.04367   4.06545   4.06630
 Alpha virt. eigenvalues --    4.10162   4.10501   4.11519   4.15132   4.16096
 Alpha virt. eigenvalues --    4.17526   4.22380   4.23188   4.23352   4.23686
 Alpha virt. eigenvalues --    4.29352   4.30128   4.30815   4.32489   4.38261
 Alpha virt. eigenvalues --    4.39034   4.44037   4.50615   4.50734   4.55132
 Alpha virt. eigenvalues --    4.63035   4.63843   4.64249   4.68860   4.75901
 Alpha virt. eigenvalues --    4.79817   4.80544   4.80565   4.80789   4.84670
 Alpha virt. eigenvalues --    4.85729   4.85899   4.86899   4.91465   4.92944
 Alpha virt. eigenvalues --    4.93364   5.04650   5.05859   5.13669   5.15043
 Alpha virt. eigenvalues --    5.15824   5.20645   5.20859   5.26917   5.28347
 Alpha virt. eigenvalues --    5.33183   5.33631   5.35228   5.35307   5.37341
 Alpha virt. eigenvalues --    5.38479   5.41326   5.42436   5.45768   5.46425
 Alpha virt. eigenvalues --    5.89535   5.92272   5.94203   5.94560   5.94932
 Alpha virt. eigenvalues --    5.95020  10.40526  10.42982  10.68202  10.72007
 Alpha virt. eigenvalues --   11.16445  11.79866  11.89832  13.42593  13.45397
 Alpha virt. eigenvalues --   15.72114  15.72129  15.73820  15.74222  15.80105
 Alpha virt. eigenvalues --   15.80551  15.93884  16.40308  16.40308  16.40512
 Alpha virt. eigenvalues --   16.40513  16.40725  16.40756  16.41255  16.41263
 Alpha virt. eigenvalues --   16.42262
  Beta  occ. eigenvalues -- -353.82549 -44.88109 -39.44750 -39.44748 -39.44476
  Beta  occ. eigenvalues --  -11.64233 -11.64233 -11.57077 -11.57077  -6.15729
  Beta  occ. eigenvalues --   -4.36803  -4.36795  -4.36164  -1.38244  -1.36661
  Beta  occ. eigenvalues --   -1.31341  -1.31230  -1.31177  -1.31164  -1.29711
  Beta  occ. eigenvalues --   -1.17741  -1.16866  -0.97611  -0.97069  -0.89795
  Beta  occ. eigenvalues --   -0.89337  -0.87291  -0.86962  -0.84631  -0.84510
  Beta virt. eigenvalues --   -0.47376  -0.37825  -0.26498  -0.26355  -0.23249
  Beta virt. eigenvalues --   -0.16015  -0.12143  -0.10497  -0.10396  -0.09216
  Beta virt. eigenvalues --   -0.08934  -0.08114  -0.07272  -0.05385  -0.04540
  Beta virt. eigenvalues --   -0.03252  -0.02350  -0.00761   0.00132   0.02152
  Beta virt. eigenvalues --    0.06545   0.07231   0.07727   0.08732   0.08799
  Beta virt. eigenvalues --    0.09392   0.10090   0.14277   0.16657   0.21527
  Beta virt. eigenvalues --    0.23612   0.25009   0.26137   0.27361   0.27511
  Beta virt. eigenvalues --    0.28445   0.28810   0.30068   0.32026   0.32390
  Beta virt. eigenvalues --    0.33657   0.34181   0.35870   0.36509   0.38404
  Beta virt. eigenvalues --    0.38777   0.39285   0.40584   0.42478   0.45696
  Beta virt. eigenvalues --    0.47073   0.52453   0.54313   0.56204   0.60281
  Beta virt. eigenvalues --    0.60790   0.62441   0.64186   0.66231   0.67413
  Beta virt. eigenvalues --    0.68697   0.71573   0.76730   0.77367   0.79233
  Beta virt. eigenvalues --    0.79948   0.83264   0.83510   0.88708   0.89338
  Beta virt. eigenvalues --    0.90620   0.92106   0.93446   0.94453   0.94584
  Beta virt. eigenvalues --    0.95278   0.96441   0.99146   1.00873   1.02273
  Beta virt. eigenvalues --    1.02745   1.02943   1.03917   1.04893   1.07563
  Beta virt. eigenvalues --    1.10109   1.12658   1.13741   1.16630   1.17117
  Beta virt. eigenvalues --    1.18449   1.18652   1.23058   1.23305   1.24931
  Beta virt. eigenvalues --    1.26258   1.28273   1.29133   1.29985   1.36775
  Beta virt. eigenvalues --    1.37982   1.39662   1.41913   1.46719   1.48297
  Beta virt. eigenvalues --    1.55751   1.57543   2.13458   2.15935   2.17220
  Beta virt. eigenvalues --    2.20181   2.24142   2.28935   2.29895   2.30843
  Beta virt. eigenvalues --    2.32282   2.35458   2.38078   2.39513   2.41572
  Beta virt. eigenvalues --    2.41992   2.48283   2.48649   2.51075   2.53972
  Beta virt. eigenvalues --    2.54895   2.55106   2.57077   2.59541   2.61672
  Beta virt. eigenvalues --    2.68037   2.68155   2.71989   2.72389   2.73602
  Beta virt. eigenvalues --    2.73731   2.74841   2.75713   2.76746   2.79000
  Beta virt. eigenvalues --    2.82275   2.83137   2.85056   2.88689   2.92194
  Beta virt. eigenvalues --    2.92732   2.93006   2.94301   2.95213   2.96775
  Beta virt. eigenvalues --    2.98486   3.01919   3.03164   3.04957   3.05008
  Beta virt. eigenvalues --    3.06249   3.06647   3.09142   3.10986   3.13940
  Beta virt. eigenvalues --    3.14082   3.16415   3.18394   3.20085   3.22516
  Beta virt. eigenvalues --    3.24822   3.26408   3.30320   3.31840   3.31974
  Beta virt. eigenvalues --    3.37953   3.39880   3.41899   3.41962   3.42587
  Beta virt. eigenvalues --    3.43177   3.45419   3.46776   3.49279   3.51245
  Beta virt. eigenvalues --    3.51300   3.60904   3.61627   3.63219   3.63294
  Beta virt. eigenvalues --    3.69666   3.72662   3.73783   3.74569   3.75086
  Beta virt. eigenvalues --    3.76473   3.77486   3.79063   3.81452   3.84395
  Beta virt. eigenvalues --    3.84440   3.85461   3.85563   3.89438   3.89506
  Beta virt. eigenvalues --    3.90117   3.93622   3.95204   3.97184   3.97677
  Beta virt. eigenvalues --    4.00098   4.00194   4.02738   4.03530   4.04957
  Beta virt. eigenvalues --    4.07121   4.07206   4.10447   4.10828   4.11754
  Beta virt. eigenvalues --    4.15770   4.16489   4.17902   4.22736   4.23444
  Beta virt. eigenvalues --    4.23589   4.24051   4.30069   4.30403   4.31311
  Beta virt. eigenvalues --    4.32754   4.39063   4.39784   4.44659   4.51202
  Beta virt. eigenvalues --    4.51349   4.55814   4.63640   4.64364   4.64788
  Beta virt. eigenvalues --    4.69923   4.76832   4.80134   4.80867   4.80890
  Beta virt. eigenvalues --    4.81211   4.85267   4.86060   4.86235   4.87512
  Beta virt. eigenvalues --    4.92211   4.93483   4.93915   5.05201   5.06595
  Beta virt. eigenvalues --    5.14772   5.15584   5.16373   5.21106   5.21252
  Beta virt. eigenvalues --    5.27352   5.28697   5.33766   5.34253   5.35557
  Beta virt. eigenvalues --    5.35632   5.37664   5.38847   5.41668   5.42775
  Beta virt. eigenvalues --    5.46357   5.47055   5.90245   5.92738   5.94682
  Beta virt. eigenvalues --    5.94717   5.95477   5.95496  10.40434  10.42894
  Beta virt. eigenvalues --   10.68327  10.72130  11.16747  11.80841  11.90812
  Beta virt. eigenvalues --   13.42673  13.45475  15.71686  15.71702  15.73826
  Beta virt. eigenvalues --   15.74227  15.80387  15.80825  15.94260  16.40134
  Beta virt. eigenvalues --   16.40134  16.40404  16.40405  16.40649  16.40681
  Beta virt. eigenvalues --   16.41194  16.41201  16.42207
          Condensed to atoms (all electrons):
               1          2          3          4          5          6
     1  Zn  28.297559   0.181421  -0.004166   0.005800   0.006656   0.001877
     2  C    0.181421   5.119241   0.314803   0.399495   0.399725  -0.007142
     3  C   -0.004166   0.314803   4.814397  -0.027412  -0.027597   0.379932
     4  H    0.005800   0.399495  -0.027412   0.440691  -0.025294  -0.002480
     5  H    0.006656   0.399725  -0.027597  -0.025294   0.439205  -0.002518
     6  H    0.001877  -0.007142   0.379932  -0.002480  -0.002518   0.435423
     7  H    0.002303  -0.029060   0.414503  -0.004304   0.003645  -0.015633
     8  H    0.002221  -0.029804   0.414384   0.003719  -0.004354  -0.015586
     9  C    0.181421  -0.007479   0.000156  -0.000224  -0.000266  -0.000011
    10  C   -0.004166   0.000156  -0.000020  -0.000012  -0.000023   0.000000
    11  H    0.005800  -0.000224  -0.000012  -0.000012   0.000008   0.000000
    12  H    0.006656  -0.000266  -0.000023   0.000008   0.000001   0.000000
    13  H    0.001877  -0.000011   0.000000   0.000000   0.000000   0.000000
    14  H    0.002303   0.000010  -0.000003   0.000008   0.000002   0.000000
    15  H    0.002221   0.000008  -0.000002  -0.000005   0.000026   0.000000
               7          8          9         10         11         12
     1  Zn   0.002303   0.002221   0.181421  -0.004166   0.005800   0.006656
     2  C   -0.029060  -0.029804  -0.007479   0.000156  -0.000224  -0.000266
     3  C    0.414503   0.414384   0.000156  -0.000020  -0.000012  -0.000023
     4  H   -0.004304   0.003719  -0.000224  -0.000012  -0.000012   0.000008
     5  H    0.003645  -0.004354  -0.000266  -0.000023   0.000008   0.000001
     6  H   -0.015633  -0.015586  -0.000011   0.000000   0.000000   0.000000
     7  H    0.499977  -0.030694   0.000010  -0.000003   0.000008   0.000002
     8  H   -0.030694   0.501574   0.000008  -0.000002  -0.000005   0.000026
     9  C    0.000010   0.000008   5.119241   0.314803   0.399495   0.399725
    10  C   -0.000003  -0.000002   0.314803   4.814397  -0.027412  -0.027597
    11  H    0.000008  -0.000005   0.399495  -0.027412   0.440691  -0.025294
    12  H    0.000002   0.000026   0.399725  -0.027597  -0.025294   0.439205
    13  H    0.000000   0.000000  -0.007142   0.379932  -0.002480  -0.002518
    14  H    0.000000   0.000001  -0.029060   0.414503  -0.004304   0.003645
    15  H    0.000001  -0.000003  -0.029804   0.414384   0.003719  -0.004354
              13         14         15
     1  Zn   0.001877   0.002303   0.002221
     2  C   -0.000011   0.000010   0.000008
     3  C    0.000000  -0.000003  -0.000002
     4  H    0.000000   0.000008  -0.000005
     5  H    0.000000   0.000002   0.000026
     6  H    0.000000   0.000000   0.000000
     7  H    0.000000   0.000000   0.000001
     8  H    0.000000   0.000001  -0.000003
     9  C   -0.007142  -0.029060  -0.029804
    10  C    0.379932   0.414503   0.414384
    11  H   -0.002480  -0.004304   0.003719
    12  H   -0.002518   0.003645  -0.004354
    13  H    0.435423  -0.015633  -0.015586
    14  H   -0.015633   0.499977  -0.030694
    15  H   -0.015586  -0.030694   0.501574
          Atomic-Atomic Spin Densities.
               1          2          3          4          5          6
     1  Zn   0.276176   0.119708  -0.016878  -0.002655  -0.002612   0.000997
     2  C    0.119708   0.537529  -0.024618   0.014994   0.014873  -0.013248
     3  C   -0.016878  -0.024618  -0.016366   0.001818   0.001843   0.026759
     4  H   -0.002655   0.014994   0.001818   0.001689   0.003111  -0.001018
     5  H   -0.002612   0.014873   0.001843   0.003111   0.001342  -0.001012
     6  H    0.000997  -0.013248   0.026759  -0.001018  -0.001012   0.084162
     7  H   -0.001448  -0.000722   0.004188   0.000447   0.000036  -0.002786
     8  H   -0.001411  -0.000787   0.004259   0.000034   0.000437  -0.002819
     9  C    0.119708  -0.007250   0.000250  -0.000160  -0.000180  -0.000015
    10  C   -0.016878   0.000250   0.000005   0.000012   0.000019   0.000000
    11  H   -0.002655  -0.000160   0.000012  -0.000005  -0.000002   0.000000
    12  H   -0.002612  -0.000180   0.000019  -0.000002  -0.000003  -0.000001
    13  H    0.000997  -0.000015   0.000000   0.000000  -0.000001   0.000000
    14  H   -0.001448  -0.000011   0.000001   0.000000  -0.000001   0.000000
    15  H   -0.001411   0.000000   0.000001   0.000000  -0.000001   0.000000
               7          8          9         10         11         12
     1  Zn  -0.001448  -0.001411   0.119708  -0.016878  -0.002655  -0.002612
     2  C   -0.000722  -0.000787  -0.007250   0.000250  -0.000160  -0.000180
     3  C    0.004188   0.004259   0.000250   0.000005   0.000012   0.000019
     4  H    0.000447   0.000034  -0.000160   0.000012  -0.000005  -0.000002
     5  H    0.000036   0.000437  -0.000180   0.000019  -0.000002  -0.000003
     6  H   -0.002786  -0.002819  -0.000015   0.000000   0.000000  -0.000001
     7  H    0.008005   0.000942  -0.000011   0.000001   0.000000  -0.000001
     8  H    0.000942   0.008115   0.000000   0.000001   0.000000  -0.000001
     9  C   -0.000011   0.000000   0.537529  -0.024618   0.014994   0.014873
    10  C    0.000001   0.000001  -0.024618  -0.016366   0.001818   0.001843
    11  H    0.000000   0.000000   0.014994   0.001818   0.001689   0.003111
    12  H   -0.000001  -0.000001   0.014873   0.001843   0.003111   0.001342
    13  H    0.000000   0.000000  -0.013248   0.026759  -0.001018  -0.001012
    14  H    0.000000   0.000000  -0.000722   0.004188   0.000447   0.000036
    15  H    0.000000   0.000000  -0.000787   0.004259   0.000034   0.000437
              13         14         15
     1  Zn   0.000997  -0.001448  -0.001411
     2  C   -0.000015  -0.000011   0.000000
     3  C    0.000000   0.000001   0.000001
     4  H    0.000000   0.000000   0.000000
     5  H   -0.000001  -0.000001  -0.000001
     6  H    0.000000   0.000000   0.000000
     7  H    0.000000   0.000000   0.000000
     8  H    0.000000   0.000000   0.000000
     9  C   -0.013248  -0.000722  -0.000787
    10  C    0.026759   0.004188   0.004259
    11  H   -0.001018   0.000447   0.000034
    12  H   -0.001012   0.000036   0.000437
    13  H    0.084162  -0.002786  -0.002819
    14  H   -0.002786   0.008005   0.000942
    15  H   -0.002819   0.000942   0.008115
 Mulliken charges and spin densities:
               1          2
     1  Zn   1.310217   0.467576
     2  C   -0.340873   0.640364
     3  C   -0.278937  -0.018707
     4  H    0.210021   0.018264
     5  H    0.210784   0.017850
     6  H    0.226137   0.091019
     7  H    0.159244   0.008652
     8  H    0.158516   0.008770
     9  C   -0.340873   0.640364
    10  C   -0.278937  -0.018707
    11  H    0.210021   0.018264
    12  H    0.210784   0.017850
    13  H    0.226137   0.091019
    14  H    0.159244   0.008652
    15  H    0.158516   0.008770
 Sum of Mulliken charges =   2.00000   2.00000
 Mulliken charges and spin densities with hydrogens summed into heavy atoms:
               1          2
     1  Zn   1.310217   0.467576
     2  C    0.079932   0.676478
     3  C    0.264960   0.089734
     9  C    0.079932   0.676478
    10  C    0.264960   0.089734
 Electronic spatial extent (au):  <R**2>=            909.7548
 Charge=              2.0000 electrons
 Dipole moment (field-independent basis, Debye):
    X=              0.0000    Y=              0.0000    Z=              0.2370  Tot=              0.2370
 Quadrupole moment (field-independent basis, Debye-Ang):
   XX=            -27.2994   YY=              4.9085   ZZ=            -32.1841
   XY=              9.2249   XZ=              0.0000   YZ=              0.0000
 Traceless Quadrupole moment (field-independent basis, Debye-Ang):
   XX=             -9.1077   YY=             23.1002   ZZ=            -13.9925
   XY=              9.2249   XZ=              0.0000   YZ=              0.0000
 Octapole moment (field-independent basis, Debye-Ang**2):
  XXX=              0.0000  YYY=              0.0000  ZZZ=              3.9665  XYY=              0.0000
  XXY=              0.0000  XXZ=             -0.7356  XZZ=              0.0000  YZZ=              0.0000
  YYZ=             -2.5593  XYZ=             -3.1432
 Hexadecapole moment (field-independent basis, Debye-Ang**3):
 XXXX=           -192.5144 YYYY=           -473.8780 ZZZZ=            -55.0364 XXXY=           -110.4254
 XXXZ=              0.0000 YYYX=            -34.3968 YYYZ=              0.0000 ZZZX=              0.0000
 ZZZY=              0.0000 XXYY=           -116.7863 XXZZ=            -39.4874 YYZZ=           -143.3029
 XXYZ=              0.0000 YYXZ=              0.0000 ZZXY=            -47.3259
 N-N= 3.207392817687D+02 E-N=-5.239395256488D+03  KE= 1.934449164764D+03
 Symmetry A    KE= 1.416879216196D+03
 Symmetry B    KE= 5.175699485684D+02
 1\1\GINC-GAMBA\SP\UCCSD(T)-FC\Gen\C4H10Zn1(2+,3)\IRIKURA\19-May-2017\0
 \\# CCSD(T,maxcyc=100)/GEN gfinput geom=check scf=xqc guess=check\\BEB
  step 9: high-spin CCSD(T) for dication of ZnEt2\\2,3\Zn,0,0.,0.,0.092
 059\C,0,0.,1.933945,0.090127\C,0,1.360973,2.577345,-0.233751\H,0,-0.34
 6594,2.294125,1.069841\H,0,-0.75069,2.294418,-0.628225\H,0,1.311324,3.
 675407,-0.22301\H,0,2.134924,2.28887,0.488877\H,0,1.727459,2.287037,-1
 .226622\C,0,0.,-1.933945,0.090127\C,0,-1.360973,-2.577345,-0.233751\H,
 0,0.346594,-2.294125,1.069841\H,0,0.75069,-2.294418,-0.628225\H,0,-1.3
 11324,-3.675407,-0.22301\H,0,-2.134924,-2.28887,0.488877\H,0,-1.727459
 ,-2.287037,-1.226622\\Version=ES64L-G09RevD.01\State=3-B\HF=-1934.3721
 904\MP2=-1935.5267173\MP3=-1935.5183342\MP4D=-1935.5511443\MP4DQ=-1935
 .5359853\PUHF=-1934.3763226\PMP2-0=-1935.529158\PMP3-0=-1935.5197808\M
 P4SDQ=-1935.5482925\CCSD=-1935.5432132\CCSD(T)=-1935.5850604\S2=2.0201
 27\S2-1=2.003513\S2A=2.000253\RMSD=6.001e-09\PG=C02 [C2(Zn1),X(C4H10)]
 \\@


          EVOLUTION
 IN THE BEGINNING GOD MADE MAN.
 HE WORKED THE DIRT WITH HIS HANDS.
 THEN GOD DECIDED TO GIVE MAN SCIENCE,
 MAN SHOULD BE USEFUL (LIKE AN APPLIANCE.)
 BUT SOON MAN'S KNOWLEDGE GREW TOO GREAT,
 TO THE HEADING SCIENCE HE COULDN'T RELATE
 SO GOD SAID "LETS HAVE DIFFERENT FIELDS,
 WE'LL DIVIDE THEM UP, SEE WHAT IT YIELDS."
 ENTER PHYSICS, CHEMISTRY, BIO
 THEY SPRANG UP AROUND THE NILE.
 BUT CHEMISTRY SURPASSED THE REST
 FAR AND AWAY IT WAS THE BEST.
 EXPERIMENT WAS GOD'S DECREE
 EXPERIMENT DID CHEMISTS WITH LOTS OF GLEE
 BUT SOON THEIR TESTS BEGAN TO BOG,
 THEY FOUND THEMSELVES DEEP IN A FOG.
 "GIVE US SOME HELP" THEY CRIED TO GOD.
 GOD LOOKED AROUND, THEN GAVE THE NOD.
 ENTER EINSTEIN, HEISENBERG, BOHR,
 REACTION PATHS WERE CLEAR ONCE MORE.
 WITH THEORISTS GOD SEND DIRECTION
 AND THEN HE STOPPED, HE'D MADE PERFECTION.
          -- THOMAS A. HOLME, 1981
 Job cpu time:       1 days 14 hours 12 minutes 27.8 seconds.
 File lengths (MBytes):  RWF=  11827 Int=      0 D2E=      0 Chk=      9 Scr=      1
 Normal termination of Gaussian 09 at Fri May 19 05:29:11 2017.
