 Entering Gaussian System, Link 0=g09
 Initial command:
 /usr/local/apps/g09/l1.exe "/wrk/irikura/Gau-4038.inp" -scrdir="/wrk/irikura/"
 Entering Link 1 = /usr/local/apps/g09/l1.exe PID=      4040.
  
 Copyright (c) 1988,1990,1992,1993,1995,1998,2003,2009,2013,
            Gaussian, Inc.  All Rights Reserved.
  
 This is part of the Gaussian(R) 09 program.  It is based on
 the Gaussian(R) 03 system (copyright 2003, Gaussian, Inc.),
 the Gaussian(R) 98 system (copyright 1998, Gaussian, Inc.),
 the Gaussian(R) 94 system (copyright 1995, Gaussian, Inc.),
 the Gaussian 92(TM) system (copyright 1992, Gaussian, Inc.),
 the Gaussian 90(TM) system (copyright 1990, Gaussian, Inc.),
 the Gaussian 88(TM) system (copyright 1988, Gaussian, Inc.),
 the Gaussian 86(TM) system (copyright 1986, Carnegie Mellon
 University), and the Gaussian 82(TM) system (copyright 1983,
 Carnegie Mellon University). Gaussian is a federally registered
 trademark of Gaussian, Inc.
  
 This software contains proprietary and confidential information,
 including trade secrets, belonging to Gaussian, Inc.
  
 This software is provided under written license and may be
 used, copied, transmitted, or stored only in accord with that
 written license.
  
 The following legend is applicable only to US Government
 contracts under FAR:
  
                    RESTRICTED RIGHTS LEGEND
  
 Use, reproduction and disclosure by the US Government is
 subject to restrictions as set forth in subparagraphs (a)
 and (c) of the Commercial Computer Software - Restricted
 Rights clause in FAR 52.227-19.
  
 Gaussian, Inc.
 340 Quinnipiac St., Bldg. 40, Wallingford CT 06492
  
  
 ---------------------------------------------------------------
 Warning -- This program may not be used in any manner that
 competes with the business of Gaussian, Inc. or will provide
 assistance to any competitor of Gaussian, Inc.  The licensee
 of this program is prohibited from giving any competitor of
 Gaussian, Inc. access to this program.  By using this program,
 the user acknowledges that Gaussian, Inc. is engaged in the
 business of creating and licensing software in the field of
 computational chemistry and represents and warrants to the
 licensee that it is not a competitor of Gaussian, Inc. and that
 it will not use this program in any manner prohibited above.
 ---------------------------------------------------------------
  

 Cite this work as:
 Gaussian 09, Revision D.01,
 M. J. Frisch, G. W. Trucks, H. B. Schlegel, G. E. Scuseria, 
 M. A. Robb, J. R. Cheeseman, G. Scalmani, V. Barone, B. Mennucci, 
 G. A. Petersson, H. Nakatsuji, M. Caricato, X. Li, H. P. Hratchian, 
 A. F. Izmaylov, J. Bloino, G. Zheng, J. L. Sonnenberg, M. Hada, 
 M. Ehara, K. Toyota, R. Fukuda, J. Hasegawa, M. Ishida, T. Nakajima, 
 Y. Honda, O. Kitao, H. Nakai, T. Vreven, J. A. Montgomery, Jr., 
 J. E. Peralta, F. Ogliaro, M. Bearpark, J. J. Heyd, E. Brothers, 
 K. N. Kudin, V. N. Staroverov, T. Keith, R. Kobayashi, J. Normand, 
 K. Raghavachari, A. Rendell, J. C. Burant, S. S. Iyengar, J. Tomasi, 
 M. Cossi, N. Rega, J. M. Millam, M. Klene, J. E. Knox, J. B. Cross, 
 V. Bakken, C. Adamo, J. Jaramillo, R. Gomperts, R. E. Stratmann, 
 O. Yazyev, A. J. Austin, R. Cammi, C. Pomelli, J. W. Ochterski, 
 R. L. Martin, K. Morokuma, V. G. Zakrzewski, G. A. Voth, 
 P. Salvador, J. J. Dannenberg, S. Dapprich, A. D. Daniels, 
 O. Farkas, J. B. Foresman, J. V. Ortiz, J. Cioslowski, 
 and D. J. Fox, Gaussian, Inc., Wallingford CT, 2013.
 
 ******************************************
 Gaussian 09:  ES64L-G09RevD.01 24-Apr-2013
                25-May-2017 
 ******************************************
 %chk=ZnEt2.chk
 %nprocs=6
 Will use up to    6 processors via shared memory.
 %mem=4000mw
 ----------------------------------------------------------------------
 # HF/GEN gfinput geom=check IOP(6/81=3) pseudo=read scf=xqc pop(all,th
 resh=1)
 ----------------------------------------------------------------------
 1/29=2,38=1/1;
 2/12=2,40=1/2;
 3/5=7,11=9,14=-4,16=1,17=8,24=10,25=1,30=1/1,2,3;
 4//1;
 5/5=2,8=3,13=1,38=5/2,8;
 6/7=2,8=2,9=2,10=2,28=1,81=3,87=-1,88=1/1;
 99/5=1,9=1/99;
 ---------------------------------------------
 BEB step 3: pseudopotential B and U for ZnEt2
 ---------------------------------------------
 Structure from the checkpoint file:  "ZnEt2.chk"
 Charge =  0 Multiplicity = 1
 Redundant internal coordinates found in file.
 Zn,0,0.,0.,0.092059
 C,0,0.,1.933945,0.090127
 C,0,1.360973,2.577345,-0.233751
 H,0,-0.346594,2.294125,1.069841
 H,0,-0.75069,2.294418,-0.628225
 H,0,1.311324,3.675407,-0.22301
 H,0,2.134924,2.28887,0.488877
 H,0,1.727459,2.287037,-1.226622
 C,0,0.,-1.933945,0.090127
 C,0,-1.360973,-2.577345,-0.233751
 H,0,0.346594,-2.294125,1.069841
 H,0,0.75069,-2.294418,-0.628225
 H,0,-1.311324,-3.675407,-0.22301
 H,0,-2.134924,-2.28887,0.488877
 H,0,-1.727459,-2.287037,-1.226622
 Recover connectivity data from disk.
                          Input orientation:                          
 ---------------------------------------------------------------------
 Center     Atomic      Atomic             Coordinates (Angstroms)
 Number     Number       Type             X           Y           Z
 ---------------------------------------------------------------------
      1         30           0        0.000000    0.000000    0.092059
      2          6           0        0.000000    1.933945    0.090127
      3          6           0        1.360973    2.577345   -0.233751
      4          1           0       -0.346594    2.294125    1.069841
      5          1           0       -0.750690    2.294418   -0.628225
      6          1           0        1.311324    3.675407   -0.223010
      7          1           0        2.134924    2.288870    0.488877
      8          1           0        1.727459    2.287037   -1.226622
      9          6           0        0.000000   -1.933945    0.090127
     10          6           0       -1.360973   -2.577345   -0.233751
     11          1           0        0.346594   -2.294125    1.069841
     12          1           0        0.750690   -2.294418   -0.628225
     13          1           0       -1.311324   -3.675407   -0.223010
     14          1           0       -2.134924   -2.288870    0.488877
     15          1           0       -1.727459   -2.287037   -1.226622
 ---------------------------------------------------------------------
                    Distance matrix (angstroms):
                    1          2          3          4          5
     1  Zn   0.000000
     2  C    1.933946   0.000000
     3  C    2.932764   1.539840   0.000000
     4  H    2.517776   1.099862   2.166876   0.000000
     5  H    2.519265   1.099775   2.166744   1.745486   0.000000
     6  H    3.915029   2.202343   1.099236   2.515571   2.514604
     7  H    3.155042   2.200653   1.097456   2.548623   3.094304
     8  H    3.154928   2.200595   1.097444   3.094429   2.549383
     9  C    1.933946   3.867890   4.723228   4.353911   4.354150
    10  C    2.932764   4.723228   5.829221   5.143883   4.925660
    11  H    2.517776   4.353911   5.143883   4.640318   5.014199
    12  H    2.519265   4.354150   4.925660   5.014199   4.828204
    13  H    3.915029   5.769095   6.799867   6.183646   6.009769
    14  H    3.155042   4.748586   6.035191   4.953735   4.916355
    15  H    3.154928   4.747066   5.846915   5.307313   4.722487
                    6          7          8          9         10
     6  H    0.000000
     7  H    1.762834   0.000000
     8  H    1.762945   1.763227   0.000000
     9  C    5.769095   4.748586   4.747066   0.000000
    10  C    6.799867   6.035191   5.846915   1.539840   0.000000
    11  H    6.183646   4.953735   5.307313   1.099862   2.166876
    12  H    6.009769   4.916355   4.722487   1.099775   2.166744
    13  H    7.804662   6.925028   6.766992   2.202343   1.099236
    14  H    6.925028   6.259976   6.228954   2.200653   1.097456
    15  H    6.766992   6.228954   5.732243   2.200595   1.097444
                   11         12         13         14         15
    11  H    0.000000
    12  H    1.745486   0.000000
    13  H    2.515571   2.514604   0.000000
    14  H    2.548623   3.094304   1.762834   0.000000
    15  H    3.094429   2.549383   1.762945   1.763227   0.000000
 Stoichiometry    C4H10Zn
 Framework group  C2[C2(Zn),X(C4H10)]
 Deg. of freedom    20
 Full point group                 C2      NOp   2
 Largest Abelian subgroup         C2      NOp   2
 Largest concise Abelian subgroup C2      NOp   2
                         Standard orientation:                         
 ---------------------------------------------------------------------
 Center     Atomic      Atomic             Coordinates (Angstroms)
 Number     Number       Type             X           Y           Z
 ---------------------------------------------------------------------
      1         30           0        0.000000    0.000000    0.092059
      2          6           0        0.000000    1.933945    0.090127
      3          6           0        1.360973    2.577345   -0.233751
      4          1           0       -0.346594    2.294125    1.069841
      5          1           0       -0.750690    2.294418   -0.628225
      6          1           0        1.311324    3.675407   -0.223010
      7          1           0        2.134924    2.288870    0.488877
      8          1           0        1.727459    2.287037   -1.226622
      9          6           0        0.000000   -1.933945    0.090127
     10          6           0       -1.360973   -2.577345   -0.233751
     11          1           0        0.346594   -2.294125    1.069841
     12          1           0        0.750690   -2.294418   -0.628225
     13          1           0       -1.311324   -3.675407   -0.223010
     14          1           0       -2.134924   -2.288870    0.488877
     15          1           0       -1.727459   -2.287037   -1.226622
 ---------------------------------------------------------------------
 Rotational constants (GHZ):     14.6723335      1.3797086      1.3187032
 General basis read from cards:  (5D, 7F)
 ======================================================================================================
                                       Pseudopotential Parameters
 ======================================================================================================
  Center     Atomic      Valence      Angular      Power
  Number     Number     Electrons     Momentum     of R      Exponent        Coefficient   SO-Coeffient
 ======================================================================================================
    1         30           20
                                      F and up 
                                                     2        1.0000000        0.00000000    0.00000000
                                      S - F
                                                     2       34.1500000      399.98728200    0.00000000
                                                     2       14.5900000       85.48565500    0.00000000
                                      P - F
                                                     2       39.7800000      277.14896000    0.00000000
                                                     2       14.9500000       69.05220500    0.00000000
                                      D - F
                                                     2       43.8000000      -34.14934900    0.00000000
                                                     2       14.9800000       -3.29183100    0.00000000
    2          6
                                   No pseudopotential on this center.
    3          6
                                   No pseudopotential on this center.
    4          1
                                   No pseudopotential on this center.
    5          1
                                   No pseudopotential on this center.
    6          1
                                   No pseudopotential on this center.
    7          1
                                   No pseudopotential on this center.
    8          1
                                   No pseudopotential on this center.
    9          6
                                   No pseudopotential on this center.
   10          6
                                   No pseudopotential on this center.
   11          1
                                   No pseudopotential on this center.
   12          1
                                   No pseudopotential on this center.
   13          1
                                   No pseudopotential on this center.
   14          1
                                   No pseudopotential on this center.
   15          1
                                   No pseudopotential on this center.
 ======================================================================================================
 AO basis set in the form of general basis input (Overlap normalization):
      1 0
 S   3 1.00       0.000000000000
      0.3032412700D+02  0.2191428783D+00
      0.1631668200D+02 -0.2325558709D+00
      0.1140814800D+02 -0.9546844699D+00
 S   1 1.00       0.000000000000
      0.2569492000D+01  0.1000000000D+01
 S   1 1.00       0.000000000000
      0.1062595000D+01  0.1000000000D+01
 S   1 1.00       0.000000000000
      0.1515530000D+00  0.1000000000D+01
 S   1 1.00       0.000000000000
      0.5274700000D-01  0.1000000000D+01
 S   1 1.00       0.000000000000
      0.1000000000D-01  0.1000000000D+01
 P   2 1.00       0.000000000000
      0.1118249800D+03  0.2327700061D-01
      0.1913191000D+02 -0.1009539027D+01
 P   2 1.00       0.000000000000
      0.5468838000D+01  0.3201511462D+00
      0.2505675000D+01  0.7180853279D+00
 P   1 1.00       0.000000000000
      0.9418680000D+00  0.1000000000D+01
 P   1 1.00       0.000000000000
      0.1711310000D+00  0.1000000000D+01
 P   1 1.00       0.000000000000
      0.4998600000D-01  0.1000000000D+01
 D   4 1.00       0.000000000000
      0.4464562900D+02  0.4724901697D-01
      0.1343837700D+02  0.2189260787D+00
      0.4682000000D+01  0.4525121626D+00
      0.1603211000D+01  0.5185761863D+00
 D   1 1.00       0.000000000000
      0.4827660000D+00  0.1000000000D+01
 D   1 1.00       0.000000000000
      0.1100000000D+00  0.1000000000D+01
 ****
      2 0
 S   6 1.00       0.000000000000
      0.4563240000D+04  0.1966650249D-02
      0.6820240000D+03  0.1523060193D-01
      0.1549730000D+03  0.7612690966D-01
      0.4445530000D+02  0.2608010331D+00
      0.1302900000D+02  0.6164620782D+00
      0.1827730000D+01  0.2210060280D+00
 SP   3 1.00       0.000000000000
      0.2096420000D+02  0.1146600807D+00  0.4024869267D-01
      0.4803310000D+01  0.9199996477D+00  0.2375939567D+00
      0.1459330000D+01 -0.3030682134D-02  0.8158538515D+00
 SP   1 1.00       0.000000000000
      0.4834560000D+00  0.1000000000D+01  0.1000000000D+01
 SP   1 1.00       0.000000000000
      0.1455850000D+00  0.1000000000D+01  0.1000000000D+01
 D   1 1.00       0.000000000000
      0.6260000000D+00  0.1000000000D+01
 ****
      3 0
 S   6 1.00       0.000000000000
      0.4563240000D+04  0.1966650249D-02
      0.6820240000D+03  0.1523060193D-01
      0.1549730000D+03  0.7612690966D-01
      0.4445530000D+02  0.2608010331D+00
      0.1302900000D+02  0.6164620782D+00
      0.1827730000D+01  0.2210060280D+00
 SP   3 1.00       0.000000000000
      0.2096420000D+02  0.1146600807D+00  0.4024869267D-01
      0.4803310000D+01  0.9199996477D+00  0.2375939567D+00
      0.1459330000D+01 -0.3030682134D-02  0.8158538515D+00
 SP   1 1.00       0.000000000000
      0.4834560000D+00  0.1000000000D+01  0.1000000000D+01
 SP   1 1.00       0.000000000000
      0.1455850000D+00  0.1000000000D+01  0.1000000000D+01
 D   1 1.00       0.000000000000
      0.6260000000D+00  0.1000000000D+01
 ****
      4 0
 S   3 1.00       0.000000000000
      0.3386500000D+02  0.2549381454D-01
      0.5094790000D+01  0.1903731086D+00
      0.1158790000D+01  0.8521614860D+00
 S   1 1.00       0.000000000000
      0.3258400000D+00  0.1000000000D+01
 S   1 1.00       0.000000000000
      0.1027410000D+00  0.1000000000D+01
 P   1 1.00       0.000000000000
      0.7500000000D+00  0.1000000000D+01
 ****
      5 0
 S   3 1.00       0.000000000000
      0.3386500000D+02  0.2549381454D-01
      0.5094790000D+01  0.1903731086D+00
      0.1158790000D+01  0.8521614860D+00
 S   1 1.00       0.000000000000
      0.3258400000D+00  0.1000000000D+01
 S   1 1.00       0.000000000000
      0.1027410000D+00  0.1000000000D+01
 P   1 1.00       0.000000000000
      0.7500000000D+00  0.1000000000D+01
 ****
      6 0
 S   3 1.00       0.000000000000
      0.3386500000D+02  0.2549381454D-01
      0.5094790000D+01  0.1903731086D+00
      0.1158790000D+01  0.8521614860D+00
 S   1 1.00       0.000000000000
      0.3258400000D+00  0.1000000000D+01
 S   1 1.00       0.000000000000
      0.1027410000D+00  0.1000000000D+01
 P   1 1.00       0.000000000000
      0.7500000000D+00  0.1000000000D+01
 ****
      7 0
 S   3 1.00       0.000000000000
      0.3386500000D+02  0.2549381454D-01
      0.5094790000D+01  0.1903731086D+00
      0.1158790000D+01  0.8521614860D+00
 S   1 1.00       0.000000000000
      0.3258400000D+00  0.1000000000D+01
 S   1 1.00       0.000000000000
      0.1027410000D+00  0.1000000000D+01
 P   1 1.00       0.000000000000
      0.7500000000D+00  0.1000000000D+01
 ****
      8 0
 S   3 1.00       0.000000000000
      0.3386500000D+02  0.2549381454D-01
      0.5094790000D+01  0.1903731086D+00
      0.1158790000D+01  0.8521614860D+00
 S   1 1.00       0.000000000000
      0.3258400000D+00  0.1000000000D+01
 S   1 1.00       0.000000000000
      0.1027410000D+00  0.1000000000D+01
 P   1 1.00       0.000000000000
      0.7500000000D+00  0.1000000000D+01
 ****
      9 0
 S   6 1.00       0.000000000000
      0.4563240000D+04  0.1966650249D-02
      0.6820240000D+03  0.1523060193D-01
      0.1549730000D+03  0.7612690966D-01
      0.4445530000D+02  0.2608010331D+00
      0.1302900000D+02  0.6164620782D+00
      0.1827730000D+01  0.2210060280D+00
 SP   3 1.00       0.000000000000
      0.2096420000D+02  0.1146600807D+00  0.4024869267D-01
      0.4803310000D+01  0.9199996477D+00  0.2375939567D+00
      0.1459330000D+01 -0.3030682134D-02  0.8158538515D+00
 SP   1 1.00       0.000000000000
      0.4834560000D+00  0.1000000000D+01  0.1000000000D+01
 SP   1 1.00       0.000000000000
      0.1455850000D+00  0.1000000000D+01  0.1000000000D+01
 D   1 1.00       0.000000000000
      0.6260000000D+00  0.1000000000D+01
 ****
     10 0
 S   6 1.00       0.000000000000
      0.4563240000D+04  0.1966650249D-02
      0.6820240000D+03  0.1523060193D-01
      0.1549730000D+03  0.7612690966D-01
      0.4445530000D+02  0.2608010331D+00
      0.1302900000D+02  0.6164620782D+00
      0.1827730000D+01  0.2210060280D+00
 SP   3 1.00       0.000000000000
      0.2096420000D+02  0.1146600807D+00  0.4024869267D-01
      0.4803310000D+01  0.9199996477D+00  0.2375939567D+00
      0.1459330000D+01 -0.3030682134D-02  0.8158538515D+00
 SP   1 1.00       0.000000000000
      0.4834560000D+00  0.1000000000D+01  0.1000000000D+01
 SP   1 1.00       0.000000000000
      0.1455850000D+00  0.1000000000D+01  0.1000000000D+01
 D   1 1.00       0.000000000000
      0.6260000000D+00  0.1000000000D+01
 ****
     11 0
 S   3 1.00       0.000000000000
      0.3386500000D+02  0.2549381454D-01
      0.5094790000D+01  0.1903731086D+00
      0.1158790000D+01  0.8521614860D+00
 S   1 1.00       0.000000000000
      0.3258400000D+00  0.1000000000D+01
 S   1 1.00       0.000000000000
      0.1027410000D+00  0.1000000000D+01
 P   1 1.00       0.000000000000
      0.7500000000D+00  0.1000000000D+01
 ****
     12 0
 S   3 1.00       0.000000000000
      0.3386500000D+02  0.2549381454D-01
      0.5094790000D+01  0.1903731086D+00
      0.1158790000D+01  0.8521614860D+00
 S   1 1.00       0.000000000000
      0.3258400000D+00  0.1000000000D+01
 S   1 1.00       0.000000000000
      0.1027410000D+00  0.1000000000D+01
 P   1 1.00       0.000000000000
      0.7500000000D+00  0.1000000000D+01
 ****
     13 0
 S   3 1.00       0.000000000000
      0.3386500000D+02  0.2549381454D-01
      0.5094790000D+01  0.1903731086D+00
      0.1158790000D+01  0.8521614860D+00
 S   1 1.00       0.000000000000
      0.3258400000D+00  0.1000000000D+01
 S   1 1.00       0.000000000000
      0.1027410000D+00  0.1000000000D+01
 P   1 1.00       0.000000000000
      0.7500000000D+00  0.1000000000D+01
 ****
     14 0
 S   3 1.00       0.000000000000
      0.3386500000D+02  0.2549381454D-01
      0.5094790000D+01  0.1903731086D+00
      0.1158790000D+01  0.8521614860D+00
 S   1 1.00       0.000000000000
      0.3258400000D+00  0.1000000000D+01
 S   1 1.00       0.000000000000
      0.1027410000D+00  0.1000000000D+01
 P   1 1.00       0.000000000000
      0.7500000000D+00  0.1000000000D+01
 ****
     15 0
 S   3 1.00       0.000000000000
      0.3386500000D+02  0.2549381454D-01
      0.5094790000D+01  0.1903731086D+00
      0.1158790000D+01  0.8521614860D+00
 S   1 1.00       0.000000000000
      0.3258400000D+00  0.1000000000D+01
 S   1 1.00       0.000000000000
      0.1027410000D+00  0.1000000000D+01
 P   1 1.00       0.000000000000
      0.7500000000D+00  0.1000000000D+01
 ****

 There are    91 symmetry adapted cartesian basis functions of A   symmetry.
 There are    84 symmetry adapted cartesian basis functions of B   symmetry.
 There are    86 symmetry adapted basis functions of A   symmetry.
 There are    82 symmetry adapted basis functions of B   symmetry.
   168 basis functions,   273 primitive gaussians,   175 cartesian basis functions
    27 alpha electrons       27 beta electrons
       nuclear repulsion energy       248.4348690747 Hartrees.
 NAtoms=   15 NActive=   15 NUniq=    8 SFac= 3.52D+00 NAtFMM=   60 NAOKFM=F Big=F
 Integral buffers will be    131072 words long.
 Raffenetti 1 integral format.
 Two-electron integral symmetry is turned on.
 One-electron integrals computed using PRISM.
   2 Symmetry operations used in ECPInt.
 ECPInt:  NShTT=    2775 NPrTT=    8498 LenC2=    2696 LenP2D=    6448.
 LDataN:  DoStor=T MaxTD1= 5 Len=  102
 NBasis=   168 RedAO= T EigKep=  1.90D-03  NBF=    86    82
 NBsUse=   168 1.00D-06 EigRej= -1.00D+00 NBFU=    86    82
 ExpMin= 1.00D-02 ExpMax= 4.56D+03 ExpMxC= 6.82D+02 IAcc=3 IRadAn=         5 AccDes= 0.00D+00
 Harris functional with IExCor=  205 and IRadAn=       5 diagonalized for initial guess.
 HarFok:  IExCor=  205 AccDes= 0.00D+00 IRadAn=         5 IDoV= 1 UseB2=F ITyADJ=14
 ICtDFT=  3500011 ScaDFX=  1.000000  1.000000  1.000000  1.000000
 FoFCou: FMM=F IPFlag=           0 FMFlag=      100000 FMFlg1=           0
         NFxFlg=           0 DoJE=T BraDBF=F KetDBF=T FulRan=T
         wScrn=  0.000000 ICntrl=     500 IOpCl=  0 I1Cent=   200000004 NGrid=           0
         NMat0=    1 NMatS0=      1 NMatT0=    0 NMatD0=    1 NMtDS0=    0 NMtDT0=    0
 Petite list used in FoFCou.
 Initial guess orbital symmetries:
       Occupied  (A) (B) (A) (B) (A) (B) (B) (A) (A) (B) (A) (B)
                 (B) (A) (A) (B) (A) (B) (B) (A) (A) (A) (B) (A)
                 (B) (B) (A)
       Virtual   (A) (B) (A) (A) (B) (A) (A) (B) (B) (A) (B) (B)
                 (B) (A) (A) (A) (A) (A) (B) (B) (B) (A) (A) (B)
                 (A) (B) (B) (B) (A) (A) (B) (A) (A) (B) (B) (A)
                 (B) (B) (A) (A) (A) (B) (B) (A) (B) (A) (A) (B)
                 (B) (A) (B) (A) (B) (A) (B) (A) (A) (A) (B) (B)
                 (A) (B) (A) (B) (A) (B) (A) (B) (B) (B) (A) (A)
                 (A) (B) (B) (A) (A) (A) (B) (A) (B) (B) (A) (B)
                 (A) (B) (A) (A) (B) (B) (A) (B) (A) (A) (B) (B)
                 (A) (B) (A) (B) (A) (A) (B) (A) (B) (B) (A) (A)
                 (B) (B) (A) (A) (B) (B) (A) (B) (A) (B) (A) (B)
                 (B) (A) (B) (A) (A) (B) (B) (A) (A) (B) (B) (A)
                 (A) (B) (A) (B) (A) (A) (B) (B) (A)
 The electronic state of the initial guess is 1-A.
 Keep R1 ints in memory in symmetry-blocked form, NReq=151291511.
 Requested convergence on RMS density matrix=1.00D-08 within  64 cycles.
 Requested convergence on MAX density matrix=1.00D-06.
 Requested convergence on             energy=1.00D-06.
 No special actions if energy rises.
 SCF Done:  E(RHF) =  -383.258756546     A.U. after   12 cycles
            NFock= 12  Conv=0.86D-08     -V/T= 2.2333
 QCSCF skips out because SCF is already converged.

 **********************************************************************

            Population analysis using the SCF density.

 **********************************************************************

 Orbital symmetries:
       Occupied  (A) (B) (B) (A) (A) (B) (A) (B) (A) (B) (A) (B)
                 (B) (A) (B) (A) (A) (A) (B) (A) (B) (B) (A) (A)
                 (B) (A) (B)
       Virtual   (A) (B) (A) (A) (B) (A) (A) (B) (A) (B) (B) (B)
                 (A) (A) (A) (A) (B) (B) (B) (A) (B) (A) (A) (B)
                 (A) (B) (B) (A) (B) (A) (B) (A) (A) (B) (A) (B)
                 (A) (B) (B) (A) (A) (A) (B) (B) (A) (B) (A) (B)
                 (B) (A) (B) (A) (B) (A) (B) (A) (A) (A) (B) (B)
                 (A) (B) (A) (B) (A) (A) (B) (B) (A) (B) (B) (A)
                 (A) (B) (B) (A) (A) (B) (A) (A) (B) (B) (B) (A)
                 (A) (B) (A) (A) (B) (B) (A) (B) (A) (A) (B) (B)
                 (A) (B) (A) (A) (B) (B) (A) (B) (A) (B) (A) (B)
                 (A) (A) (B) (A) (B) (A) (B) (B) (A) (A) (B) (B)
                 (B) (A) (B) (A) (A) (B) (B) (A) (A) (B) (B) (A)
                 (A) (B) (A) (B) (A) (A) (B) (B) (A)
 The electronic state is 1-A.
 Alpha  occ. eigenvalues --  -11.21004 -11.21004 -11.18897 -11.18896  -5.91437
 Alpha  occ. eigenvalues --   -3.92404  -3.92377  -3.91918  -0.99605  -0.99118
 Alpha  occ. eigenvalues --   -0.83108  -0.80927  -0.77667  -0.77653  -0.77353
 Alpha  occ. eigenvalues --   -0.77244  -0.74352  -0.58178  -0.57735  -0.55901
 Alpha  occ. eigenvalues --   -0.55661  -0.49132  -0.48828  -0.47263  -0.46893
 Alpha  occ. eigenvalues --   -0.40697  -0.33920
 Alpha virt. eigenvalues --    0.02227   0.08762   0.09018   0.13442   0.17108
 Alpha virt. eigenvalues --    0.20282   0.21591   0.22093   0.23073   0.23202
 Alpha virt. eigenvalues --    0.23464   0.24750   0.26313   0.27972   0.30257
 Alpha virt. eigenvalues --    0.33391   0.34351   0.34987   0.35781   0.37629
 Alpha virt. eigenvalues --    0.41622   0.42435   0.43234   0.45348   0.47109
 Alpha virt. eigenvalues --    0.48441   0.49869   0.54971   0.56425   0.58434
 Alpha virt. eigenvalues --    0.64360   0.66322   0.70867   0.73323   0.77552
 Alpha virt. eigenvalues --    0.77582   0.80701   0.80973   0.82068   0.82903
 Alpha virt. eigenvalues --    0.83757   0.85378   0.86300   0.86579   0.87826
 Alpha virt. eigenvalues --    0.88180   0.89694   0.92273   1.02775   1.03818
 Alpha virt. eigenvalues --    1.17832   1.19093   1.28134   1.29694   1.36180
 Alpha virt. eigenvalues --    1.38207   1.52133   1.53445   1.54014   1.60689
 Alpha virt. eigenvalues --    1.62828   1.68108   1.69395   1.70901   1.74187
 Alpha virt. eigenvalues --    1.74592   1.74683   1.76349   1.77639   1.79803
 Alpha virt. eigenvalues --    1.80910   1.86338   1.86549   1.86916   1.89437
 Alpha virt. eigenvalues --    1.91571   1.94774   1.98780   2.02010   2.02703
 Alpha virt. eigenvalues --    2.06695   2.08301   2.14410   2.14921   2.25220
 Alpha virt. eigenvalues --    2.28388   2.30389   2.37022   2.37057   2.38891
 Alpha virt. eigenvalues --    2.39744   2.45051   2.52119   2.58534   2.61722
 Alpha virt. eigenvalues --    2.62483   2.63583   2.71245   2.73809   2.74904
 Alpha virt. eigenvalues --    2.78620   2.79825   2.84500   2.86455   2.87168
 Alpha virt. eigenvalues --    2.89615   2.89994   2.93592   2.95327   2.96981
 Alpha virt. eigenvalues --    2.98559   3.00511   3.02541   3.04071   3.04602
 Alpha virt. eigenvalues --    3.13108   3.17275   3.24239   3.25839   3.38086
 Alpha virt. eigenvalues --    3.47457   3.51977   3.81684   3.85818   4.14838
 Alpha virt. eigenvalues --    4.16702   4.19271   4.19492   4.19631   4.19833
 Alpha virt. eigenvalues --    4.58563   4.58610   4.61789  25.01319  25.02016
 Alpha virt. eigenvalues --   25.08498  25.10021  69.96739  69.97526  70.18262
 Alpha virt. eigenvalues --   89.69228
          Condensed to atoms (all electrons):
               1          2          3          4          5          6
     1  Zn  18.992844   0.387777  -0.059633  -0.036236  -0.037490   0.014631
     2  C    0.387777   5.118457   0.315533   0.402428   0.401761  -0.040463
     3  C   -0.059633   0.315533   4.772051  -0.034010  -0.033780   0.424152
     4  H   -0.036236   0.402428  -0.034010   0.593004  -0.025806  -0.009500
     5  H   -0.037490   0.401761  -0.033780  -0.025806   0.594653  -0.009700
     6  H    0.014631  -0.040463   0.424152  -0.009500  -0.009700   0.601894
     7  H   -0.008740  -0.042302   0.418422  -0.003983   0.008106  -0.034346
     8  H   -0.008410  -0.042093   0.418319   0.007988  -0.003827  -0.034235
     9  C    0.387777  -0.015777   0.000372   0.000508   0.000604  -0.000024
    10  C   -0.059633   0.000372  -0.000003  -0.000024  -0.000123   0.000000
    11  H   -0.036236   0.000508  -0.000024  -0.000069  -0.000008   0.000003
    12  H   -0.037490   0.000604  -0.000123  -0.000008  -0.000018   0.000004
    13  H    0.014631  -0.000024   0.000000   0.000003   0.000004   0.000000
    14  H   -0.008740   0.000026  -0.000004  -0.000006   0.000001   0.000000
    15  H   -0.008410   0.000027   0.000000  -0.000002  -0.000025   0.000000
               7          8          9         10         11         12
     1  Zn  -0.008740  -0.008410   0.387777  -0.059633  -0.036236  -0.037490
     2  C   -0.042302  -0.042093  -0.015777   0.000372   0.000508   0.000604
     3  C    0.418422   0.418319   0.000372  -0.000003  -0.000024  -0.000123
     4  H   -0.003983   0.007988   0.000508  -0.000024  -0.000069  -0.000008
     5  H    0.008106  -0.003827   0.000604  -0.000123  -0.000008  -0.000018
     6  H   -0.034346  -0.034235  -0.000024   0.000000   0.000003   0.000004
     7  H    0.614545  -0.030238   0.000026  -0.000004  -0.000006   0.000001
     8  H   -0.030238   0.613530   0.000027   0.000000  -0.000002  -0.000025
     9  C    0.000026   0.000027   5.118457   0.315533   0.402428   0.401761
    10  C   -0.000004   0.000000   0.315533   4.772051  -0.034010  -0.033780
    11  H   -0.000006  -0.000002   0.402428  -0.034010   0.593004  -0.025806
    12  H    0.000001  -0.000025   0.401761  -0.033780  -0.025806   0.594653
    13  H    0.000000   0.000000  -0.040463   0.424152  -0.009500  -0.009700
    14  H    0.000000   0.000000  -0.042302   0.418422  -0.003983   0.008106
    15  H    0.000000   0.000000  -0.042093   0.418319   0.007988  -0.003827
              13         14         15
     1  Zn   0.014631  -0.008740  -0.008410
     2  C   -0.000024   0.000026   0.000027
     3  C    0.000000  -0.000004   0.000000
     4  H    0.000003  -0.000006  -0.000002
     5  H    0.000004   0.000001  -0.000025
     6  H    0.000000   0.000000   0.000000
     7  H    0.000000   0.000000   0.000000
     8  H    0.000000   0.000000   0.000000
     9  C   -0.040463  -0.042302  -0.042093
    10  C    0.424152   0.418422   0.418319
    11  H   -0.009500  -0.003983   0.007988
    12  H   -0.009700   0.008106  -0.003827
    13  H    0.601894  -0.034346  -0.034235
    14  H   -0.034346   0.614545  -0.030238
    15  H   -0.034235  -0.030238   0.613530
 Mulliken charges:
               1
     1  Zn   0.503357
     2  C   -0.486834
     3  C   -0.221273
     4  H    0.105712
     5  H    0.105647
     6  H    0.087584
     7  H    0.078519
     8  H    0.078965
     9  C   -0.486834
    10  C   -0.221273
    11  H    0.105712
    12  H    0.105647
    13  H    0.087584
    14  H    0.078519
    15  H    0.078965
 Sum of Mulliken charges =   0.00000
 Mulliken charges with hydrogens summed into heavy atoms:
               1
     1  Zn   0.503357
     2  C   -0.275474
     3  C    0.023795
     9  C   -0.275474
    10  C    0.023795
 Electronic spatial extent (au):  <R**2>=            967.0531
 Charge=              0.0000 electrons
 Dipole moment (field-independent basis, Debye):
    X=              0.0000    Y=              0.0000    Z=              0.0635  Tot=              0.0635
 Quadrupole moment (field-independent basis, Debye-Ang):
   XX=            -42.2304   YY=            -48.9903   ZZ=            -40.8295
   XY=             -1.0610   XZ=              0.0000   YZ=              0.0000
 Traceless Quadrupole moment (field-independent basis, Debye-Ang):
   XX=              1.7864   YY=             -4.9736   ZZ=              3.1872
   XY=             -1.0610   XZ=              0.0000   YZ=              0.0000
 Octapole moment (field-independent basis, Debye-Ang**2):
  XXX=              0.0000  YYY=              0.0000  ZZZ=              3.6818  XYY=              0.0000
  XXY=              0.0000  XXZ=              1.9255  XZZ=              0.0000  YZZ=              0.0000
  YYZ=              1.3900  XYZ=              0.9531
 Hexadecapole moment (field-independent basis, Debye-Ang**3):
 XXXX=           -265.4812 YYYY=          -1077.9730 ZZZZ=            -77.6589 XXXY=           -174.2728
 XXXZ=              0.0000 YYYX=           -175.9889 YYYZ=              0.0000 ZZZX=              0.0000
 ZZZY=              0.0000 XXYY=           -231.9153 XXZZ=            -54.5935 YYZZ=           -189.8293
 XXYZ=              0.0000 YYXZ=              0.0000 ZZXY=            -56.1824
 N-N= 2.484348690747D+02 E-N=-1.424357210468D+03  KE= 3.107533413279D+02
 Symmetry A    KE= 1.635856425365D+02
 Symmetry B    KE= 1.471676987913D+02

 Atomic contributions to Alpha molecular orbitals:
 Alpha occ 1 OE=-11.210 is C3-s=0.50 C10-s=0.50
 Alpha occ 2 OE=-11.210 is C10-s=0.50 C3-s=0.50
 Alpha occ 3 OE=-11.189 is C2-s=0.50 C9-s=0.50
 Alpha occ 4 OE=-11.189 is C2-s=0.50 C9-s=0.50
 Alpha occ 5 OE=-5.914 is Zn1-s=1.01
 Alpha occ 6 OE=-3.924 is Zn1-p=1.00
 Alpha occ 7 OE=-3.924 is Zn1-p=1.00
 Alpha occ 8 OE=-3.919 is Zn1-p=1.00
 Alpha occ 9 OE=-0.996 is C10-s=0.19 C3-s=0.19 C2-s=0.16 C9-s=0.16 Zn1-d=0.03 H13-s=0.02 H6-s=0.02 Zn1-s=0.02 H14-s=0.02 H7-s=0.02 H8-s=0.02 H15-s=0.02 H12-s=0.02 H5-s=0.02 H4-s=0.02 H11-s=0.02 C2-p=0.
 01 C9-p=0.01
 Alpha occ 10 OE=-0.991 is C3-s=0.20 C10-s=0.20 C2-s=0.15 C9-s=0.15 H15-s=0.03 H8-s=0.03 H7-s=0.03 H14-s=0.03 H6-s=0.03 H13-s=0.03 H11-s=0.02 H4-s=0.02 H12-s=0.02 H5-s=0.02 C2-p=0.01 C9-p=0.01
 Alpha occ 11 OE=-0.831 is Zn1-d=0.23 C9-s=0.10 C2-s=0.10 C3-s=0.09 C10-s=0.09 H14-s=0.03 H7-s=0.03 H15-s=0.03 H8-s=0.03 H12-s=0.03 H5-s=0.03 H4-s=0.03 H11-s=0.03 H6-s=0.02 H13-s=0.02 Zn1-s=0.02 C10-p=
 0.02 C3-p=0.02 C2-p=0.02 C9-p=0.02
 Alpha occ 12 OE=-0.809 is C9-s=0.15 C2-s=0.15 C10-s=0.09 C3-s=0.09 H11-s=0.05 H4-s=0.05 H5-s=0.05 H12-s=0.05 C10-p=0.04 C3-p=0.04 H15-s=0.03 H8-s=0.03 H7-s=0.03 H14-s=0.03 H6-s=0.03 H13-s=0.03 Zn1-p=0
 .03 C9-p=0.02 C2-p=0.02
 Alpha occ 13 OE=-0.777 is Zn1-d=1.00
 Alpha occ 14 OE=-0.777 is Zn1-d=1.00
 Alpha occ 15 OE=-0.774 is Zn1-d=0.98
 Alpha occ 16 OE=-0.772 is Zn1-d=0.98
 Alpha occ 17 OE=-0.744 is Zn1-d=0.72 C9-s=0.03 C2-s=0.03 C9-p=0.02 C2-p=0.02 H4-s=0.02 H11-s=0.02 H5-s=0.02 H12-s=0.02 C3-p=0.02 C10-p=0.02
 Alpha occ 18 OE=-0.582 is C3-p=0.15 C10-p=0.15 C9-p=0.13 C2-p=0.13 H8-s=0.06 H15-s=0.06 H7-s=0.06 H14-s=0.06 H11-s=0.04 H4-s=0.04 H5-s=0.04 H12-s=0.04
 Alpha occ 19 OE=-0.577 is C3-p=0.16 C10-p=0.16 C2-p=0.12 C9-p=0.12 H7-s=0.06 H14-s=0.06 H8-s=0.06 H15-s=0.06 H5-s=0.04 H12-s=0.04 H11-s=0.04 H4-s=0.04 Zn1-d=0.01
 Alpha occ 20 OE=-0.559 is C10-p=0.23 C3-p=0.23 H13-s=0.13 H6-s=0.13 Zn1-s=0.06 C9-p=0.06 C2-p=0.06 H14-s=0.02 H7-s=0.02 H8-s=0.02 H15-s=0.02 Zn1-d=0.01
 Alpha occ 21 OE=-0.557 is C10-p=0.24 C3-p=0.24 H13-s=0.14 H6-s=0.14 C9-p=0.06 C2-p=0.06 H15-s=0.02 H8-s=0.02 H7-s=0.02 H14-s=0.02 Zn1-p=0.02
 Alpha occ 22 OE=-0.491 is C10-p=0.19 C3-p=0.19 C9-p=0.19 C2-p=0.19 H14-s=0.03 H7-s=0.03 H12-s=0.03 H5-s=0.03 H15-s=0.02 H8-s=0.02 H4-s=0.02 H11-s=0.02 Zn1-p=0.01
 Alpha occ 23 OE=-0.488 is C9-p=0.19 C2-p=0.19 C10-p=0.19 C3-p=0.19 H8-s=0.03 H15-s=0.03 H4-s=0.03 H11-s=0.03 H5-s=0.02 H12-s=0.02 H14-s=0.02 H7-s=0.02 Zn1-s=0.02
 Alpha occ 24 OE=-0.473 is C9-p=0.13 C2-p=0.13 C3-p=0.10 C10-p=0.10 H12-s=0.07 H5-s=0.07 H7-s=0.06 H14-s=0.06 H4-s=0.06 H11-s=0.06 H8-s=0.05 H15-s=0.05
 Alpha occ 25 OE=-0.469 is C2-p=0.14 C9-p=0.14 C3-p=0.09 C10-p=0.09 H4-s=0.08 H11-s=0.08 H12-s=0.07 H5-s=0.07 H15-s=0.06 H8-s=0.06 H14-s=0.05 H7-s=0.05
 Alpha occ 26 OE=-0.407 is Zn1-s=0.35 C9-p=0.20 C2-p=0.20 H13-s=0.04 H6-s=0.04 C3-p=0.04 C10-p=0.04 Zn1-d=0.01 H5-s=0.01 H12-s=0.01 H4-s=0.01 H11-s=0.01
 Alpha occ 27 OE=-0.339 is C9-p=0.30 C2-p=0.30 Zn1-p=0.19 H6-s=0.03 H13-s=0.03 C3-p=0.02 C10-p=0.02 C9-s=0.02 C2-s=0.02 H11-s=0.01 H4-s=0.01 H5-s=0.01 H12-s=0.01
 Alpha vir 28 OE=0.022 is Zn1-s=1.02 Zn1-d=0.03
 Alpha vir 29 OE=0.088 is Zn1-p=0.98 H7-s=0.02 H14-s=0.02 H13-s=0.02 H6-s=0.02 C10-s=-0.01 C3-s=-0.01 H5-s=-0.01 H12-s=-0.01 C2-p=-0.01 C9-p=-0.01 H15-s=0.01 H8-s=0.01
 Alpha vir 30 OE=0.090 is Zn1-p=1.04 H11-s=-0.02 H4-s=-0.02 C9-p=-0.01 C2-p=-0.01
 Alpha vir 31 OE=0.134 is Zn1-s=1.77 Zn1-d=-0.53 C9-s=-0.08 C2-s=-0.08 H12-s=-0.02 H5-s=-0.02 H11-s=-0.02 H4-s=-0.02
 Alpha vir 32 OE=0.171 is Zn1-p=0.68 H13-s=0.11 H6-s=0.11 C9-s=-0.08 C2-s=-0.08 H12-s=0.07 H5-s=0.07 C3-s=-0.07 C10-s=-0.07 H11-s=0.06 H4-s=0.06 H15-s=0.02 H8-s=0.02 H7-s=0.02 H14-s=0.02
 Alpha vir 33 OE=0.203 is H13-s=0.35 H6-s=0.35 H14-s=0.23 H7-s=0.23 C3-s=-0.14 C10-s=-0.14 H15-s=0.11 H8-s=0.11 Zn1-s=-0.10 C3-p=-0.03 C10-p=-0.03 H4-s=0.02 H11-s=0.02 C9-s=0.01 C2-s=0.01 Zn1-d=-0.01
 Alpha vir 34 OE=0.216 is H11-s=0.20 H4-s=0.20 H5-s=0.20 H12-s=0.20 H7-s=0.10 H14-s=0.10 H13-s=0.08 H6-s=0.08 Zn1-s=-0.06 Zn1-d=-0.05 H8-s=0.05 H15-s=0.05 C9-p=-0.05 C2-p=-0.05 C3-p=-0.03 C10-p=-0.03 C
 2-s=-0.01 C9-s=-0.01
 Alpha vir 35 OE=0.221 is H15-s=0.36 H8-s=0.36 Zn1-p=0.10 H4-s=0.09 H11-s=0.09 H13-s=0.08 H6-s=0.08 C3-p=-0.06 C10-p=-0.06 C10-s=-0.03 C3-s=-0.03 C2-p=-0.01 C9-p=-0.01 H7-s=0.01 H14-s=0.01
 Alpha vir 36 OE=0.231 is H5-s=0.19 H12-s=0.19 H11-s=0.18 H4-s=0.18 Zn1-p=0.10 H15-s=0.05 H8-s=0.05 H7-s=0.01 H14-s=0.01 Zn1-d=0.01
 Alpha vir 37 OE=0.232 is H5-s=0.19 H12-s=0.19 H14-s=0.18 H7-s=0.18 Zn1-p=0.10 H13-s=0.07 H6-s=0.07 H11-s=0.05 H4-s=0.05 C10-s=-0.03 C3-s=-0.03 C3-p=-0.03 C10-p=-0.03 Zn1-d=0.02 C2-p=-0.02 C9-p=-0.02 H
 15-s=0.01 H8-s=0.01
 Alpha vir 38 OE=0.235 is H13-s=0.27 H6-s=0.27 Zn1-p=0.21 H8-s=0.11 H15-s=0.11 C10-p=-0.06 C3-p=-0.06 H7-s=0.05 H14-s=0.05
 Alpha vir 39 OE=0.248 is H14-s=0.21 H7-s=0.21 H4-s=0.14 H11-s=0.14 Zn1-d=0.12 H12-s=0.04 H5-s=0.04 H8-s=0.04 H15-s=0.04 Zn1-p=0.04 C10-p=-0.02 C3-p=-0.02 H13-s=0.02 H6-s=0.02
 Alpha vir 40 OE=0.263 is H8-s=0.27 H15-s=0.27 H7-s=0.13 H14-s=0.13 Zn1-d=0.12 C10-p=-0.03 C3-p=-0.03 Zn1-p=0.03 H4-s=0.03 H11-s=0.03 H12-s=0.02 H5-s=0.02
 Alpha vir 41 OE=0.280 is H12-s=0.16 H5-s=0.16 H7-s=0.12 H14-s=0.12 H13-s=0.10 H6-s=0.10 H11-s=0.08 H4-s=0.08 Zn1-s=0.06 Zn1-d=-0.02 C10-p=0.02 C3-p=0.02
 Alpha vir 42 OE=0.303 is Zn1-d=0.47 Zn1-s=0.07 C2-s=0.05 C9-s=0.05 C2-p=0.04 C9-p=0.04 H11-s=0.04 H4-s=0.04 H13-s=0.04 H6-s=0.04 H8-s=0.03 H15-s=0.03
 Alpha vir 43 OE=0.334 is Zn1-d=0.72 Zn1-s=0.06 H15-s=0.04 H8-s=0.04 C2-p=0.03 C9-p=0.03 H11-s=0.03 H4-s=0.03 Zn1-p=0.01 C9-s=-0.01 C2-s=-0.01
 Alpha vir 44 OE=0.344 is Zn1-p=0.51 C10-p=0.11 C3-p=0.11 C2-p=0.06 C9-p=0.06 H12-s=0.05 H5-s=0.05 H7-s=0.02 H14-s=0.02 C9-s=-0.02 C2-s=-0.02 H11-s=0.01 H4-s=0.01
 Alpha vir 45 OE=0.350 is Zn1-d=0.55 Zn1-p=0.12 H11-s=0.07 H4-s=0.07 C3-p=0.07 C10-p=0.07 H14-s=0.01 H7-s=0.01
 Alpha vir 46 OE=0.358 is H5-s=0.27 H12-s=0.27 Zn1-d=0.13 H11-s=0.12 H4-s=0.12 Zn1-p=0.08 C9-p=-0.07 C2-p=-0.07 H7-s=0.03 H14-s=0.03 C3-p=0.02 C10-p=0.02 H13-s=0.01 H6-s=0.01 H8-s=0.01 H15-s=0.01
 Alpha vir 47 OE=0.376 is Zn1-p=0.65 H11-s=0.08 H4-s=0.08 H12-s=0.06 H5-s=0.06 C10-p=0.02 C3-p=0.02 H8-s=0.01 H15-s=0.01
 Alpha vir 48 OE=0.416 is Zn1-d=0.98 C9-p=-0.09 C2-p=-0.09 H11-s=0.03 H4-s=0.03 C10-p=0.02 C3-p=0.02 H7-s=0.01 H14-s=0.01 H5-s=0.01 H12-s=0.01
 Alpha vir 49 OE=0.424 is Zn1-d=0.27 C3-p=0.18 C10-p=0.18 C9-p=0.11 C2-p=0.11 Zn1-p=0.04 H13-s=0.03 H6-s=0.03 H5-s=0.01 H12-s=0.01 H11-s=0.01 H4-s=0.01 C10-s=-0.01 C3-s=-0.01
 Alpha vir 50 OE=0.432 is Zn1-d=0.67 C10-p=0.27 C3-p=0.27 C9-p=-0.16 C2-p=-0.16 H6-s=0.04 H13-s=0.04 C2-s=-0.02 C9-s=-0.02 Zn1-s=-0.01 C10-s=0.01 C3-s=0.01
 Alpha vir 51 OE=0.453 is C3-p=0.17 C10-p=0.17 C2-p=0.11 C9-p=0.11 Zn1-p=0.09 H4-s=0.08 H11-s=0.08 H7-s=0.06 H14-s=0.06 Zn1-d=0.05 C2-s=-0.02 C9-s=-0.02
 Alpha vir 52 OE=0.471 is C3-p=0.29 C10-p=0.29 H15-s=0.11 H8-s=0.11 H7-s=0.07 H14-s=0.07 H5-s=0.02 H12-s=0.02
 Alpha vir 53 OE=0.484 is C3-p=0.30 C10-p=0.30 Zn1-p=0.16 H14-s=0.07 H7-s=0.07 Zn1-d=0.05 H15-s=0.03 H8-s=0.03 C9-s=-0.01 C2-s=-0.01 C9-p=-0.01 C2-p=-0.01
 Alpha vir 54 OE=0.499 is C3-p=0.27 C10-p=0.27 H15-s=0.08 H8-s=0.08 Zn1-d=0.07 Zn1-p=0.06 C9-p=0.05 C2-p=0.05 H13-s=0.02 H6-s=0.02
 Alpha vir 55 OE=0.550 is Zn1-d=0.22 C2-p=0.20 C9-p=0.20 C10-p=0.15 C3-p=0.15 Zn1-s=-0.12 H7-s=0.05 H14-s=0.05 H13-s=0.04 H6-s=0.04 C9-s=-0.02 C2-s=-0.02 H15-s=0.02 H8-s=0.02
 Alpha vir 56 OE=0.564 is Zn1-p=0.46 C2-p=0.24 C9-p=0.24 C3-p=-0.04 C10-p=-0.04 C2-s=0.04 C9-s=0.04 C3-s=-0.02 C10-s=-0.02 H15-s=0.01 H8-s=0.01 C9-d=0.01 C2-d=0.01 H6-s=0.01 H13-s=0.01
 Alpha vir 57 OE=0.584 is C9-p=0.45 C2-p=0.45 Zn1-d=0.43 Zn1-s=-0.21 C2-s=-0.04 C9-s=-0.04 C10-p=-0.02 C3-p=-0.02
 Alpha vir 58 OE=0.644 is H13-s=0.15 H6-s=0.15 C9-p=0.12 C2-p=0.12 C3-p=0.11 C10-p=0.11 Zn1-p=0.06 H12-s=0.03 H5-s=0.03 C3-s=0.03 C10-s=0.03
 Alpha vir 59 OE=0.663 is C2-p=0.21 C9-p=0.21 H4-s=0.13 H11-s=0.13 Zn1-p=0.07 H5-s=0.06 H12-s=0.06 C10-p=0.02 C3-p=0.02 C10-d=0.01 C3-d=0.01 H6-s=0.01 H13-s=0.01
 Alpha vir 60 OE=0.709 is Zn1-d=0.55 Zn1-s=0.14 C9-p=-0.08 C2-p=-0.08 H5-s=0.07 H12-s=0.07 H6-s=0.06 H13-s=0.06 C3-p=0.04 C10-p=0.04 C2-s=0.03 C9-s=0.03 H11-s=0.01 H4-s=0.01 C10-s=0.01 C3-s=0.01
 Alpha vir 61 OE=0.733 is Zn1-d=0.24 C3-p=0.18 C10-p=0.18 H11-s=0.11 H4-s=0.11 H5-s=0.09 H12-s=0.09 H15-s=-0.03 H8-s=-0.03 C2-p=0.03 C9-p=0.03 H7-s=-0.02 H14-s=-0.02 C10-d=0.01 C3-d=0.01
 Alpha vir 62 OE=0.776 is Zn1-d=0.28 C10-s=0.14 C3-s=0.14 H13-s=0.09 H6-s=0.09 C10-p=0.04 C3-p=0.04 H15-s=0.04 H8-s=0.04 H14-s=0.03 H7-s=0.03 H4-s=0.01 H11-s=0.01
 Alpha vir 63 OE=0.776 is Zn1-p=0.31 C10-s=0.08 C3-s=0.08 H15-s=0.05 H8-s=0.05 H6-s=0.05 H13-s=0.05 C10-p=0.03 C3-p=0.03 H5-s=0.03 H12-s=0.03 H4-s=0.03 H11-s=0.03 C2-p=0.03 C9-p=0.03 H14-s=0.03 H7-s=0.
 03 C9-s=0.01 C2-s=0.01
 Alpha vir 64 OE=0.807 is C3-p=0.17 C10-p=0.17 Zn1-d=0.16 C2-p=0.11 C9-p=0.11 H7-s=0.05 H14-s=0.05 H15-s=0.03 H8-s=0.03 C9-s=0.02 C2-s=0.02 C3-s=0.02 C10-s=0.02 Zn1-s=-0.01 H14-p=0.01 H7-p=0.01
 Alpha vir 65 OE=0.810 is C10-p=0.21 C3-p=0.21 C9-p=0.13 C2-p=0.13 H15-s=0.09 H8-s=0.09 H14-s=0.04 H7-s=0.04 C10-s=0.03 C3-s=0.03 H13-s=-0.03 H6-s=-0.03 H15-p=0.01 H8-p=0.01 Zn1-p=-0.01
 Alpha vir 66 OE=0.821 is C10-p=0.40 C3-p=0.40 H7-s=0.04 H14-s=0.04 C2-p=0.02 C9-p=0.02 H8-s=-0.01 H15-s=-0.01 H14-p=0.01 H7-p=0.01
 Alpha vir 67 OE=0.829 is C3-p=0.45 C10-p=0.45 Zn1-d=0.02 H8-p=0.01 H15-p=0.01
 Alpha vir 68 OE=0.838 is C3-p=0.35 C10-p=0.35 C9-p=0.08 C2-p=0.08 H12-s=0.04 H5-s=0.04 H13-s=-0.04 H6-s=-0.04 C10-s=0.02 C3-s=0.02 Zn1-s=-0.01 H6-p=0.01 H13-p=0.01
 Alpha vir 69 OE=0.854 is C2-p=0.53 C9-p=0.53 H5-s=-0.04 H12-s=-0.04 H4-s=-0.04 H11-s=-0.04 C10-s=0.02 C3-s=0.02 H13-s=-0.02 H6-s=-0.02 H11-p=0.02 H4-p=0.02
 Alpha vir 70 OE=0.863 is C3-p=0.25 C10-p=0.25 C9-p=0.24 C2-p=0.24 Zn1-p=0.04 Zn1-d=-0.02 H11-s=-0.02 H4-s=-0.02 C3-s=-0.01 C10-s=-0.01
 Alpha vir 71 OE=0.866 is C9-p=0.28 C2-p=0.28 C10-p=0.26 C3-p=0.26 Zn1-p=-0.02 H12-s=-0.02 H5-s=-0.02 H15-s=-0.01 H8-s=-0.01 H7-s=-0.01 H14-s=-0.01 H13-p=0.01 H6-p=0.01 H13-s=-0.01 H6-s=-0.01
 Alpha vir 72 OE=0.878 is C9-p=0.49 C2-p=0.49 Zn1-d=-0.16 C10-p=0.13 C3-p=0.13 C10-s=-0.04 C3-s=-0.04 H5-s=-0.03 H12-s=-0.03 H6-s=-0.01 H13-s=-0.01 C9-d=0.01 C2-d=0.01 C3-d=0.01 C10-d=0.01 H5-p=0.01 H1
 2-p=0.01
 Alpha vir 73 OE=0.882 is C2-p=0.70 C9-p=0.70 Zn1-d=-0.17 H5-s=-0.08 H12-s=-0.08 H11-s=-0.06 H4-s=-0.06 C3-p=-0.03 C10-p=-0.03 C10-s=0.02 C3-s=0.02 H12-p=0.01 H5-p=0.01 Zn1-p=-0.01 H13-s=-0.01 H6-s=-0.
 01
 Alpha vir 74 OE=0.897 is C10-p=0.24 C3-p=0.24 C9-p=0.19 C2-p=0.19 Zn1-d=0.10 H13-s=-0.03 H6-s=-0.03 C2-s=-0.01 C9-s=-0.01 C3-d=0.01 C10-d=0.01 H12-s=0.01 H5-s=0.01
 Alpha vir 75 OE=0.923 is C9-p=0.38 C2-p=0.38 C3-p=0.12 C10-p=0.12 Zn1-p=-0.10 C9-s=0.06 C2-s=0.06 H11-s=-0.02 H4-s=-0.02 H13-s=-0.02 H6-s=-0.02 H11-p=0.01 H4-p=0.01 C3-s=0.01 C10-s=0.01
 Alpha vir 76 OE=1.028 is C3-s=0.80 C10-s=0.80 C9-p=-0.12 C2-p=-0.12 H14-s=-0.07 H7-s=-0.07 C9-s=-0.06 C2-s=-0.06 H8-s=-0.06 H15-s=-0.06 H6-s=-0.04 H13-s=-0.04 C10-p=0.02 C3-p=0.02 H4-s=0.01 H11-s=0.01
 Alpha vir 77 OE=1.038 is C3-s=0.62 C10-s=0.62 C9-s=0.11 C2-s=0.11 Zn1-s=-0.07 Zn1-d=-0.07 H15-s=-0.06 H8-s=-0.06 H14-s=-0.05 H7-s=-0.05 C2-p=-0.05 C9-p=-0.05 C10-p=0.04 C3-p=0.04 H4-s=-0.03 H11-s=-0.0
 3 H13-s=-0.03 H6-s=-0.03 H5-s=-0.01 H12-s=-0.01
 Alpha vir 78 OE=1.178 is C2-s=0.72 C9-s=0.72 Zn1-p=-0.16 C3-p=-0.11 C10-p=-0.11 C3-s=-0.04 C10-s=-0.04 C9-d=0.03 C2-d=0.03 H4-s=-0.03 H11-s=-0.03 C10-d=0.02 C3-d=0.02 H12-s=-0.02 H5-s=-0.02 H15-p=0.01
  H8-p=0.01 H6-s=-0.01 H13-s=-0.01 H7-p=0.01 H14-p=0.01
 Alpha vir 79 OE=1.191 is C9-s=0.62 C2-s=0.62 C10-s=0.13 C3-s=0.13 C10-p=-0.12 C3-p=-0.12 Zn1-d=-0.09 Zn1-s=-0.06 H12-s=-0.03 H5-s=-0.03 C2-p=-0.02 C9-p=-0.02 C3-d=0.02 C10-d=0.02 H11-s=-0.02 H4-s=-0.0
 2 C9-d=0.02 C2-d=0.02 H15-s=-0.01 H8-s=-0.01 H13-s=-0.01 H6-s=-0.01 H14-s=-0.01 H7-s=-0.01
 Alpha vir 80 OE=1.281 is C3-d=0.12 C10-d=0.12 C2-d=0.10 C9-d=0.10 C2-s=0.08 C9-s=0.08 H12-p=0.05 H5-p=0.05 H13-p=0.05 H6-p=0.05 H4-p=0.04 H11-p=0.04 H14-p=0.04 H7-p=0.04 H15-p=0.04 H8-p=0.04 Zn1-p=-0.
 03
 Alpha vir 81 OE=1.297 is C9-d=0.13 C2-d=0.13 C3-d=0.12 C10-d=0.12 H4-p=0.06 H11-p=0.06 H12-p=0.04 H5-p=0.04 H13-p=0.04 H6-p=0.04 H14-p=0.03 H7-p=0.03 H8-p=0.03 H15-p=0.03 C2-s=0.02 C9-s=0.02 Zn1-p=0.0
 1 C9-p=0.01 C2-p=0.01 C10-s=0.01 C3-s=0.01
 Alpha vir 82 OE=1.362 is C3-d=0.13 C10-d=0.13 C2-d=0.10 C9-d=0.10 C9-p=0.08 C2-p=0.08 Zn1-d=0.06 H14-p=0.06 H7-p=0.06 H8-p=0.06 H15-p=0.06 H13-p=0.02 H6-p=0.02 H11-p=0.02 H4-p=0.02 H5-p=0.01 H12-p=0.0
 1
 Alpha vir 83 OE=1.382 is C3-d=0.14 C10-d=0.14 C2-d=0.08 C9-d=0.08 C9-p=0.05 C2-p=0.05 H12-p=0.05 H5-p=0.05 H8-p=0.04 H15-p=0.04 H6-p=0.04 H13-p=0.04 C3-p=0.04 C10-p=0.04 H14-p=0.03 H7-p=0.03 C9-s=0.02
  C2-s=0.02 H4-p=0.01 H11-p=0.01 Zn1-d=-0.01
 Alpha vir 84 OE=1.521 is H5-p=0.10 H12-p=0.10 H7-p=0.10 H14-p=0.10 C9-d=0.08 C2-d=0.08 Zn1-d=0.08 C10-d=0.06 C3-d=0.06 H4-p=0.04 H11-p=0.04 H8-p=0.03 H15-p=0.03 H13-p=0.03 H6-p=0.03 C9-p=0.02 C2-p=0.0
 2
 Alpha vir 85 OE=1.534 is Zn1-d=0.23 C9-d=0.13 C2-d=0.13 H4-p=0.06 H11-p=0.06 H6-p=0.05 H13-p=0.05 H8-p=0.05 H15-p=0.05 C10-d=0.05 C3-d=0.05 C9-p=0.02 C2-p=0.02
 Alpha vir 86 OE=1.540 is C9-d=0.13 C2-d=0.13 H4-p=0.09 H11-p=0.09 H12-p=0.08 H5-p=0.08 H8-p=0.06 H15-p=0.06 H14-p=0.06 H7-p=0.06 Zn1-d=0.04 C3-d=0.04 C10-d=0.04
 Alpha vir 87 OE=1.607 is Zn1-d=0.15 C9-d=0.12 C2-d=0.12 H13-p=0.08 H6-p=0.08 H5-p=0.06 H12-p=0.06 C10-d=0.06 C3-d=0.06 H11-p=0.04 H4-p=0.04 H8-p=0.03 H15-p=0.03 C2-p=0.02 C9-p=0.02 H14-p=0.02 H7-p=0.0
 2
 Alpha vir 88 OE=1.628 is Zn1-d=0.28 C2-d=0.21 C9-d=0.21 C9-p=0.03 C2-p=0.03 H12-p=0.03 H5-p=0.03 H4-p=0.02 H11-p=0.02 C9-s=0.02 C2-s=0.02 C10-d=0.01 C3-d=0.01 H12-s=0.01 H5-s=0.01 Zn1-s=-0.01 H11-s=0.
 01 H4-s=0.01 H6-p=0.01 H13-p=0.01
 Alpha vir 89 OE=1.681 is Zn1-d=0.49 H4-p=0.10 H11-p=0.10 H5-p=0.06 H12-p=0.06 C2-d=0.03 C9-d=0.03 C3-d=0.03 C10-d=0.03 H7-p=0.01 H14-p=0.01
 Alpha vir 90 OE=1.694 is Zn1-d=0.74 C9-d=0.04 C2-d=0.04 C10-d=0.04 C3-d=0.04 H8-p=0.01 H15-p=0.01
 Alpha vir 91 OE=1.709 is Zn1-d=0.62 C2-d=0.04 C9-d=0.04 H8-p=0.03 H15-p=0.03 C3-d=0.03 C10-d=0.03 H13-p=0.03 H6-p=0.03 H4-p=0.02 H11-p=0.02 H14-p=0.02 H7-p=0.02
 Alpha vir 92 OE=1.742 is H7-p=0.19 H14-p=0.19 H8-p=0.12 H15-p=0.12 H13-p=0.10 H6-p=0.10 C3-d=0.05 C10-d=0.05 Zn1-d=0.02 H15-s=0.01 H8-s=0.01
 Alpha vir 93 OE=1.746 is C10-d=0.24 C3-d=0.24 H6-p=0.09 H13-p=0.09 H8-s=0.06 H15-s=0.06 H14-s=0.04 H7-s=0.04 C3-p=-0.04 C10-p=-0.04 C9-d=0.03 C2-d=0.03 H5-p=0.02 H12-p=0.02 H15-p=0.02 H8-p=0.02 H11-p=
 0.01 H4-p=0.01 H14-p=0.01 H7-p=0.01
 Alpha vir 94 OE=1.747 is H13-p=0.16 H6-p=0.16 C3-d=0.09 C10-d=0.09 H15-p=0.08 H8-p=0.08 H7-p=0.07 H14-p=0.07 C9-d=0.04 C2-d=0.04 H15-s=0.02 H8-s=0.02 H14-s=0.02 H7-s=0.02 C10-p=-0.01 C3-p=-0.01 H11-p=
 0.01 H4-p=0.01
 Alpha vir 95 OE=1.763 is Zn1-d=0.17 C3-d=0.17 C10-d=0.17 H8-p=0.09 H15-p=0.09 H14-p=0.09 H7-p=0.09 H7-s=0.03 H14-s=0.03 H8-s=0.03 H15-s=0.03 C3-p=-0.03 C10-p=-0.03
 Alpha vir 96 OE=1.776 is Zn1-d=0.31 C3-d=0.18 C10-d=0.18 H8-p=0.07 H15-p=0.07 H7-s=0.03 H14-s=0.03 C2-d=0.03 C9-d=0.03 C3-p=-0.03 C10-p=-0.03 H6-s=0.02 H13-s=0.02 H7-p=0.01 H14-p=0.01 H13-p=0.01 H6-p=
 0.01
 Alpha vir 97 OE=1.798 is C9-d=0.14 C2-d=0.14 H6-p=0.12 H13-p=0.12 C3-d=0.10 C10-d=0.10 H14-p=0.05 H7-p=0.05 H15-p=0.03 H8-p=0.03 C2-p=-0.02 C9-p=-0.02 H5-s=0.02 H12-s=0.02 H12-p=0.02 H5-p=0.02 C9-s=0.
 01 C2-s=0.01 H15-s=0.01 H8-s=0.01 Zn1-d=0.01 H4-s=0.01 H11-s=0.01
 Alpha vir 98 OE=1.809 is C9-d=0.18 C2-d=0.18 C3-d=0.15 C10-d=0.15 H7-p=0.05 H14-p=0.05 H15-p=0.05 H8-p=0.05 H11-p=0.02 H4-p=0.02 Zn1-p=0.02
 Alpha vir 99 OE=1.863 is C10-d=0.19 C3-d=0.19 C2-d=0.09 C9-d=0.09 H13-p=0.05 H6-p=0.05 H6-s=0.04 H13-s=0.04 Zn1-d=0.04 H7-p=0.03 H14-p=0.03 C9-p=0.02 C2-p=0.02 H15-p=0.02 H8-p=0.02 H11-s=0.02 H4-s=0.0
 2 H4-p=0.01 H11-p=0.01
 Alpha vir 100 OE=1.865 is C9-d=0.25 C2-d=0.25 C3-d=0.06 C10-d=0.06 H15-p=0.05 H8-p=0.05 H12-s=0.04 H5-s=0.04 H4-s=0.03 H11-s=0.03 H5-p=0.03 H12-p=0.03 C2-p=-0.03 C9-p=-0.03 H13-p=0.02 H6-p=0.02 H14-p=
 0.01 H7-p=0.01 H11-p=0.01 H4-p=0.01
 Alpha vir 101 OE=1.869 is C3-d=0.21 C10-d=0.21 C2-d=0.07 C9-d=0.07 H13-s=0.06 H6-s=0.06 H6-p=0.04 H13-p=0.04 H11-p=0.04 H4-p=0.04 H14-p=0.03 H7-p=0.03 Zn1-p=-0.03 H12-p=0.02 H5-p=0.02 H4-s=0.02 H11-s=
 0.02 C3-s=-0.01 C10-s=-0.01
 Alpha vir 102 OE=1.894 is C2-d=0.20 C9-d=0.20 Zn1-d=0.11 C10-d=0.05 C3-d=0.05 H8-p=0.04 H15-p=0.04 C2-p=-0.04 C9-p=-0.04 H5-s=0.04 H12-s=0.04 H14-p=0.03 H7-p=0.03 H4-s=0.03 H11-s=0.03 H5-p=0.03 H12-p=
 0.03 H6-p=0.03 H13-p=0.03 H4-p=0.02 H11-p=0.02
 Alpha vir 103 OE=1.916 is Zn1-d=0.23 H12-p=0.12 H5-p=0.12 H13-p=0.12 H6-p=0.12 H4-p=0.04 H11-p=0.04 H15-p=0.02 H8-p=0.02 H14-p=0.02 H7-p=0.02 C10-d=0.02 C3-d=0.02 C2-d=0.02 C9-d=0.02
 Alpha vir 104 OE=1.948 is H11-p=0.20 H4-p=0.20 H12-p=0.11 H5-p=0.11 Zn1-d=0.10 H6-p=0.05 H13-p=0.05 H14-p=0.04 H7-p=0.04 H8-p=0.02 H15-p=0.02 C9-p=0.02 C2-p=0.02
 Alpha vir 105 OE=1.988 is H5-p=0.15 H12-p=0.15 H11-p=0.15 H4-p=0.15 H8-p=0.06 H15-p=0.06 H7-p=0.06 H14-p=0.06 Zn1-d=0.03 C2-p=0.02 C9-p=0.02 H13-p=0.02 H6-p=0.02 C9-d=0.01 C2-d=0.01
 Alpha vir 106 OE=2.020 is H7-p=0.13 H14-p=0.13 H12-p=0.08 H5-p=0.08 Zn1-d=0.05 H15-p=0.05 H8-p=0.05 C9-d=0.05 C2-d=0.05 H11-p=0.04 H4-p=0.04 H13-p=0.04 H6-p=0.04 C3-d=0.04 C10-d=0.04
 Alpha vir 107 OE=2.027 is H8-p=0.13 H15-p=0.13 H4-p=0.09 H11-p=0.09 H7-p=0.06 H14-p=0.06 H13-p=0.05 H6-p=0.05 C3-d=0.05 C10-d=0.05 Zn1-d=0.04 C2-d=0.04 C9-d=0.04 H12-p=0.03 H5-p=0.03
 Alpha vir 108 OE=2.067 is H5-p=0.11 H12-p=0.11 H4-p=0.11 H11-p=0.11 H15-p=0.09 H8-p=0.09 H7-p=0.08 H14-p=0.08 C2-d=0.05 C9-d=0.05 C2-p=0.02 C9-p=0.02 C10-p=0.01 C3-p=0.01
 Alpha vir 109 OE=2.083 is Zn1-d=0.12 H6-p=0.09 H13-p=0.09 H12-p=0.07 H5-p=0.07 C10-d=0.06 C3-d=0.06 C9-d=0.04 C2-d=0.04 H11-p=0.04 H4-p=0.04 H15-p=0.04 H8-p=0.04 H14-p=0.03 H7-p=0.03 C2-p=0.02 C9-p=0.
 02 C10-p=0.02 C3-p=0.02
 Alpha vir 110 OE=2.144 is C9-d=0.11 C2-d=0.11 H7-p=0.08 H14-p=0.08 H13-p=0.07 H6-p=0.07 C3-d=0.06 C10-d=0.06 H8-p=0.06 H15-p=0.06 H12-p=0.03 H5-p=0.03 C10-p=0.02 C3-p=0.02 H6-s=0.02 H13-s=0.02 H4-p=0.
 02 H11-p=0.02 C9-s=0.01 C2-s=0.01 Zn1-p=0.01
 Alpha vir 111 OE=2.149 is H5-p=0.09 H12-p=0.09 H11-p=0.09 H4-p=0.09 Zn1-d=0.07 C9-d=0.07 C2-d=0.07 H8-p=0.05 H15-p=0.05 C3-d=0.04 C10-d=0.04 H7-p=0.04 H14-p=0.04 H13-p=0.02 H6-p=0.02 C3-p=0.02 C10-p=0
 .02 C9-p=0.01 C2-p=0.01 H13-s=0.01 H6-s=0.01
 Alpha vir 112 OE=2.252 is Zn1-d=0.25 H4-p=0.07 H11-p=0.07 C9-d=0.07 C2-d=0.07 H12-p=0.04 H5-p=0.04 C10-d=0.04 C3-d=0.04 H12-s=0.03 H5-s=0.03 H4-s=0.03 H11-s=0.03 H13-s=0.03 H6-s=0.03 H15-p=0.02 H8-p=0
 .02 Zn1-s=0.02 H14-p=0.02 H7-p=0.02 C2-p=0.01 C9-p=0.01
 Alpha vir 113 OE=2.284 is C2-d=0.18 C9-d=0.18 H5-p=0.11 H12-p=0.11 H11-p=0.07 H4-p=0.07 H13-p=0.03 H6-p=0.03 H15-p=0.02 H8-p=0.02 H7-s=0.02 H14-s=0.02 H7-p=0.01 H14-p=0.01 C3-d=0.01 C10-d=0.01 H6-s=0.
 01 H13-s=0.01 H8-s=0.01 H15-s=0.01
 Alpha vir 114 OE=2.304 is C9-d=0.16 C2-d=0.16 H13-p=0.07 H6-p=0.07 C3-d=0.05 C10-d=0.05 H4-p=0.05 H11-p=0.05 C3-p=0.04 C10-p=0.04 H5-p=0.03 H12-p=0.03 H14-s=0.03 H7-s=0.03 H7-p=0.02 H14-p=0.02 H15-s=0
 .02 H8-s=0.02
 Alpha vir 115 OE=2.370 is C3-d=0.11 C10-d=0.11 C2-d=0.09 C9-d=0.09 Zn1-d=0.06 H8-s=0.05 H15-s=0.05 H7-s=0.05 H14-s=0.05 H7-p=0.05 H14-p=0.05 H8-p=0.04 H15-p=0.04 C2-p=0.03 C9-p=0.03 H6-p=0.01 H13-p=0.
 01 H12-s=0.01 H5-s=0.01
 Alpha vir 116 OE=2.371 is C2-d=0.10 C9-d=0.10 H8-s=0.08 H15-s=0.08 C3-d=0.08 C10-d=0.08 H12-p=0.06 H5-p=0.06 H13-p=0.05 H6-p=0.05 Zn1-d=0.03 H15-p=0.02 H8-p=0.02 H11-s=0.02 H4-s=0.02 C3-p=0.02 C10-p=0
 .02 H14-p=0.02 H7-p=0.02 H4-p=0.01 H11-p=0.01
 Alpha vir 117 OE=2.389 is C3-d=0.09 C10-d=0.09 H11-p=0.07 H4-p=0.07 C9-d=0.07 C2-d=0.07 H14-s=0.06 H7-s=0.06 H6-p=0.06 H13-p=0.06 H14-p=0.05 H7-p=0.05 Zn1-d=0.04 H15-p=0.03 H8-p=0.03 C3-p=0.02 C10-p=0
 .02 H5-s=0.02 H12-s=0.02
 Alpha vir 118 OE=2.397 is H13-p=0.08 H6-p=0.08 Zn1-d=0.08 H5-p=0.07 H12-p=0.07 H15-p=0.06 H8-p=0.06 C10-d=0.06 C3-d=0.06 H11-p=0.05 H4-p=0.05 C9-d=0.05 C2-d=0.05 H14-p=0.05 H7-p=0.05
 Alpha vir 119 OE=2.451 is C2-d=0.10 C9-d=0.10 C10-d=0.07 C3-d=0.07 H12-p=0.07 H5-p=0.07 H11-p=0.07 H4-p=0.07 H13-s=0.06 H6-s=0.06 H15-p=0.03 H8-p=0.03 H6-p=0.03 H13-p=0.03 H14-p=0.03 H7-p=0.03 C2-p=0.
 02 C9-p=0.02 C10-p=0.01 C3-p=0.01
 Alpha vir 120 OE=2.521 is C9-d=0.15 C2-d=0.15 H13-s=0.09 H6-s=0.09 H5-p=0.07 H12-p=0.07 H11-p=0.07 H4-p=0.07 Zn1-d=0.05 H11-s=0.01 H4-s=0.01 C10-p=0.01 C3-p=0.01 C10-s=0.01 C3-s=0.01 H15-p=0.01 H8-p=0
 .01 C10-d=0.01 C3-d=0.01
 Alpha vir 121 OE=2.585 is C3-d=0.14 C10-d=0.14 C9-p=0.06 C2-p=0.06 H7-p=0.06 H14-p=0.06 C2-d=0.05 C9-d=0.05 H15-p=0.05 H8-p=0.05 H13-p=0.04 H6-p=0.04 H12-s=0.04 H5-s=0.04 H4-s=0.03 H11-s=0.03 H5-p=0.0
 2 H12-p=0.02 H4-p=0.01 H11-p=0.01
 Alpha vir 122 OE=2.617 is C10-d=0.14 C3-d=0.14 C9-d=0.07 C2-d=0.07 H8-p=0.06 H15-p=0.06 H7-p=0.04 H14-p=0.04 H4-p=0.04 H11-p=0.04 H11-s=0.03 H4-s=0.03 H6-p=0.03 H13-p=0.03 C9-p=0.03 C2-p=0.03 H12-p=0.
 02 H5-p=0.02 H15-s=0.01 H8-s=0.01
 Alpha vir 123 OE=2.625 is C10-d=0.12 C3-d=0.12 C9-d=0.08 C2-d=0.08 H14-p=0.05 H7-p=0.05 H12-s=0.04 H5-s=0.04 H5-p=0.04 H12-p=0.04 C2-p=0.04 C9-p=0.04 H8-p=0.04 H15-p=0.04 Zn1-d=0.03 H6-p=0.03 H13-p=0.
 03 H4-p=0.02 H11-p=0.02 C10-p=0.01 C3-p=0.01 H7-s=0.01 H14-s=0.01
 Alpha vir 124 OE=2.636 is C3-d=0.08 C10-d=0.08 C2-d=0.07 C9-d=0.07 H4-p=0.04 H11-p=0.04 H14-p=0.04 H7-p=0.04 H8-p=0.04 H15-p=0.04 H5-p=0.04 H12-p=0.04 H5-s=0.03 H12-s=0.03 H11-s=0.03 H4-s=0.03 H15-s=0
 .03 H8-s=0.03 H7-s=0.02 H14-s=0.02 C2-p=0.02 C9-p=0.02 H6-p=0.02 H13-p=0.02 C3-p=0.02 C10-p=0.02 H6-s=0.01 H13-s=0.01
 Alpha vir 125 OE=2.712 is H13-s=0.13 H6-s=0.13 C10-d=0.10 C3-d=0.10 H8-p=0.06 H15-p=0.06 H7-p=0.05 H14-p=0.05 C3-p=0.04 C10-p=0.04 C2-d=0.02 C9-d=0.02 Zn1-p=0.02 H14-s=0.01 H7-s=0.01 H15-s=0.01 H8-s=0
 .01 C9-p=0.01 C2-p=0.01
 Alpha vir 126 OE=2.738 is H7-p=0.15 H14-p=0.15 H14-s=0.12 H7-s=0.12 H15-p=0.10 H8-p=0.10 H8-s=0.10 H15-s=0.10 C10-p=-0.06 C3-p=-0.06 H12-s=0.04 H5-s=0.04 H11-s=0.04 H4-s=0.04 C10-d=-0.04 C3-d=-0.04 H6
 -p=0.02 H13-p=0.02 H12-p=0.02 H5-p=0.02 H11-p=0.02 H4-p=0.02 C2-p=-0.02 C9-p=-0.02
 Alpha vir 127 OE=2.749 is C3-d=0.12 C10-d=0.12 C3-p=0.06 C10-p=0.06 C2-d=0.06 C9-d=0.06 H6-s=0.06 H13-s=0.06 H8-p=0.05 H15-p=0.05 H14-s=0.04 H7-s=0.04 H6-p=0.04 H13-p=0.04 Zn1-d=0.02 H14-p=0.02 H7-p=0
 .02 C9-p=0.02 C2-p=0.02 H15-s=0.01 H8-s=0.01
 Alpha vir 128 OE=2.786 is H8-s=0.18 H15-s=0.18 H8-p=0.14 H15-p=0.14 H7-p=0.10 H14-p=0.10 H13-p=0.07 H6-p=0.07 C10-p=-0.07 C3-p=-0.07 H12-s=0.03 H5-s=0.03 C3-d=-0.02 C10-d=-0.02 H4-p=0.02 H11-p=0.02 H1
 4-s=0.02 H7-s=0.02 C2-d=0.01 C9-d=0.01
 Alpha vir 129 OE=2.798 is H7-s=0.15 H14-s=0.15 H13-p=0.10 H6-p=0.10 H7-p=0.08 H14-p=0.08 H15-p=0.05 H8-p=0.05 C10-p=-0.04 C3-p=-0.04 C2-p=0.04 C9-p=0.04 H4-p=0.03 H11-p=0.03 C2-d=0.03 C9-d=0.03 H5-p=0
 .02 H12-p=0.02 Zn1-p=0.02 H11-s=0.01 H4-s=0.01
 Alpha vir 130 OE=2.845 is H11-s=0.10 H4-s=0.10 H12-p=0.09 H5-p=0.09 H5-s=0.09 H12-s=0.09 H15-s=0.07 H8-s=0.07 C10-d=0.04 C3-d=0.04 H4-p=0.03 H11-p=0.03 C10-p=0.03 C3-p=0.03 H6-p=0.03 H13-p=0.03 C9-d=-
 0.02 C2-d=-0.02 H14-s=0.01 H7-s=0.01 H7-p=0.01 H14-p=0.01
 Alpha vir 131 OE=2.865 is H11-s=0.12 H4-s=0.12 H5-s=0.12 H12-s=0.12 H12-p=0.07 H5-p=0.07 C10-p=0.05 C3-p=0.05 H4-p=0.05 H11-p=0.05 C3-d=0.04 C10-d=0.04 H15-s=0.03 H8-s=0.03 C9-d=-0.03 C2-d=-0.03 Zn1-d
 =0.02 C2-p=0.02 C9-p=0.02
 Alpha vir 132 OE=2.872 is H6-p=0.10 H13-p=0.10 H13-s=0.07 H6-s=0.07 H11-p=0.05 H4-p=0.05 H14-s=0.05 H7-s=0.05 H8-p=0.05 H15-p=0.05 C2-p=0.04 C9-p=0.04 C9-d=0.03 C2-d=0.03 C3-d=0.03 C10-d=0.03 H8-s=0.0
 2 H15-s=0.02 H7-p=0.02 H14-p=0.02 H12-s=0.02 H5-s=0.02 H5-p=0.01 H12-p=0.01
 Alpha vir 133 OE=2.896 is H6-s=0.09 H13-s=0.09 C2-d=0.08 C9-d=0.08 H4-s=0.07 H11-s=0.07 H6-p=0.06 H13-p=0.06 Zn1-p=0.05 H12-s=0.04 H5-s=0.04 C9-p=0.04 C2-p=0.04 H7-s=0.03 H14-s=0.03 H14-p=0.03 H7-p=0.
 03 H15-s=0.02 H8-s=0.02 H12-p=0.02 H5-p=0.02 C3-p=-0.01 C10-p=-0.01
 Alpha vir 134 OE=2.900 is H13-p=0.11 H6-p=0.11 H5-s=0.07 H12-s=0.07 C9-d=0.07 C2-d=0.07 H4-s=0.06 H11-s=0.06 C9-p=0.06 C2-p=0.06 H13-s=0.04 H6-s=0.04 H8-p=0.04 H15-p=0.04 Zn1-d=0.03 Zn1-s=0.02 C3-p=-0
 .01 C10-p=-0.01 C10-d=0.01 C3-d=0.01 C2-s=-0.01 C9-s=-0.01 H8-s=0.01 H15-s=0.01 H14-p=0.01 H7-p=0.01
 Alpha vir 135 OE=2.936 is C3-p=0.15 C10-p=0.15 C10-d=0.09 C3-d=0.09 H6-p=0.06 H13-p=0.06 H15-p=0.04 H8-p=0.04 H13-s=0.04 H6-s=0.04 H14-p=0.04 H7-p=0.04 C2-d=0.03 C9-d=0.03 C9-p=0.02 C2-p=0.02 H11-p=0.
 01 H4-p=0.01
 Alpha vir 136 OE=2.953 is C10-p=0.10 C3-p=0.10 C3-d=0.09 C10-d=0.09 H14-p=0.08 H7-p=0.08 H15-p=0.05 H8-p=0.05 H4-s=0.04 H11-s=0.04 H11-p=0.04 H4-p=0.04 C2-d=0.02 C9-d=0.02 H13-p=0.02 H6-p=0.02 H5-p=0.
 02 H12-p=0.02 H14-s=0.02 H7-s=0.02 H8-s=0.02 H15-s=0.02 H5-s=0.01 H12-s=0.01 C2-p=-0.01 C9-p=-0.01
 Alpha vir 137 OE=2.970 is C3-p=0.13 C10-p=0.13 C10-d=0.11 C3-d=0.11 C2-d=0.06 C9-d=0.06 H13-s=0.05 H6-s=0.05 H13-p=0.04 H6-p=0.04 H15-p=0.03 H8-p=0.03 Zn1-d=0.02 H15-s=0.01 H8-s=0.01 H14-p=0.01 H7-p=0
 .01 H4-s=0.01 H11-s=0.01
 Alpha vir 138 OE=2.986 is C3-d=0.12 C10-d=0.12 C2-d=0.09 C9-d=0.09 C10-p=0.07 C3-p=0.07 H5-s=0.03 H12-s=0.03 H14-p=0.03 H7-p=0.03 H7-s=0.03 H14-s=0.03 H8-p=0.03 H15-p=0.03 H8-s=0.02 H15-s=0.02 C2-p=0.
 02 C9-p=0.02 H4-p=0.02 H11-p=0.02 H11-s=0.01 H4-s=0.01 H5-p=0.01 H12-p=0.01
 Alpha vir 139 OE=3.005 is H11-p=0.12 H4-p=0.12 C2-d=0.11 C9-d=0.11 H5-p=0.09 H12-p=0.09 C2-p=0.07 C9-p=0.07 C3-d=0.04 C10-d=0.04 H4-s=0.01 H11-s=0.01 H5-s=0.01 H12-s=0.01 H14-p=0.01 H7-p=0.01
 Alpha vir 140 OE=3.025 is H5-p=0.18 H12-p=0.18 H4-p=0.09 H11-p=0.09 H12-s=0.05 H5-s=0.05 C2-d=0.05 C9-d=0.05 C3-p=0.04 C10-p=0.04 C3-d=0.02 C10-d=0.02 H4-s=0.02 H11-s=0.02 H14-p=0.01 H7-p=0.01 Zn1-d=0
 .01
 Alpha vir 141 OE=3.041 is H12-p=0.14 H5-p=0.14 H4-p=0.10 H11-p=0.10 H12-s=0.07 H5-s=0.07 H7-p=0.06 H14-p=0.06 H8-s=0.05 H15-s=0.05 H8-p=0.05 H15-p=0.05 H14-s=0.05 H7-s=0.05 H4-s=0.04 H11-s=0.04 C2-s=-
 0.03 C9-s=-0.03 C10-s=-0.02 C3-s=-0.02 C2-p=-0.02 C9-p=-0.02
 Alpha vir 142 OE=3.046 is H4-p=0.13 H11-p=0.13 H4-s=0.09 H11-s=0.09 H12-p=0.06 H5-p=0.06 H15-p=0.06 H8-p=0.06 Zn1-p=0.05 H14-s=0.05 H7-s=0.05 H14-p=0.04 H7-p=0.04 H12-s=0.04 H5-s=0.04 H13-p=0.04 H6-p=
 0.04 C2-s=-0.04 C9-s=-0.04 H15-s=0.03 H8-s=0.03 C3-s=-0.03 C10-s=-0.03 H6-s=0.01 H13-s=0.01 C9-p=-0.01 C2-p=-0.01
 Alpha vir 143 OE=3.131 is H6-p=0.11 H13-p=0.11 H13-s=0.07 H6-s=0.07 H11-p=0.06 H4-p=0.06 H4-s=0.06 H11-s=0.06 H12-s=0.04 H5-s=0.04 H5-p=0.04 H12-p=0.04 Zn1-p=0.04 H8-s=0.03 H15-s=0.03 H15-p=0.03 H8-p=
 0.03 H7-p=0.03 H14-p=0.03 C2-p=0.02 C9-p=0.02 C10-s=-0.02 C3-s=-0.02 H7-s=0.02 H14-s=0.02 C10-p=0.01 C3-p=0.01
 Alpha vir 144 OE=3.173 is H13-p=0.10 H6-p=0.10 H13-s=0.09 H6-s=0.09 H7-p=0.05 H14-p=0.05 H14-s=0.05 H7-s=0.05 H8-p=0.05 H15-p=0.05 C3-s=-0.04 C10-s=-0.04 H8-s=0.04 H15-s=0.04 H11-s=0.04 H4-s=0.04 H5-s
 =0.04 H12-s=0.04 H11-p=0.03 H4-p=0.03 H5-p=0.03 H12-p=0.03 C10-p=0.01 C3-p=0.01 C9-p=0.01 C2-p=0.01 Zn1-p=0.01
 Alpha vir 145 OE=3.242 is Zn1-p=0.97
 Alpha vir 146 OE=3.258 is Zn1-p=0.80 C9-p=0.06 C2-p=0.06
 Alpha vir 147 OE=3.381 is C9-p=0.27 C2-p=0.27 Zn1-p=0.27 H14-p=0.02 H7-p=0.02 H15-p=0.02 H8-p=0.02 C3-d=0.02 C10-d=0.02 H5-s=0.01 H12-s=0.01
 Alpha vir 148 OE=3.475 is Zn1-p=0.25 C2-p=0.17 C9-p=0.17 C10-p=0.15 C3-p=0.15 H14-p=0.02 H7-p=0.02 H8-p=0.02 H15-p=0.02 H13-p=0.01 H6-p=0.01
 Alpha vir 149 OE=3.520 is C2-p=0.21 C9-p=0.21 C10-p=0.18 C3-p=0.18 Zn1-s=0.04 H15-p=0.03 H8-p=0.03 H7-p=0.03 H14-p=0.03 Zn1-d=0.02 H6-p=0.01 H13-p=0.01
 Alpha vir 150 OE=3.817 is Zn1-p=0.52 C2-p=0.15 C9-p=0.15 C3-p=0.05 C10-p=0.05 H5-p=0.02 H12-p=0.02 H11-p=0.02 H4-p=0.02 C9-d=0.01 C2-d=0.01
 Alpha vir 151 OE=3.858 is C9-p=0.33 C2-p=0.33 Zn1-s=0.11 Zn1-d=0.05 C2-d=0.03 C9-d=0.03 C3-p=0.03 C10-p=0.03 H4-p=0.01 H11-p=0.01 H12-p=0.01 H5-p=0.01
 Alpha vir 152 OE=4.148 is C9-p=0.36 C2-p=0.36 C2-d=0.08 C9-d=0.08 C10-p=0.03 C3-p=0.03 H11-s=0.01 H4-s=0.01 H5-s=0.01 H12-s=0.01
 Alpha vir 153 OE=4.167 is C2-p=0.35 C9-p=0.35 C9-d=0.07 C2-d=0.07 C3-p=0.05 C10-p=0.05 H5-s=0.01 H12-s=0.01 H11-s=0.01 H4-s=0.01
 Alpha vir 154 OE=4.193 is C3-p=0.38 C10-p=0.38 C3-d=0.08 C10-d=0.08 H13-s=0.01 H6-s=0.01
 Alpha vir 155 OE=4.195 is C3-p=0.37 C10-p=0.37 C10-d=0.08 C3-d=0.08 H15-s=0.01 H8-s=0.01
 Alpha vir 156 OE=4.196 is C10-p=0.37 C3-p=0.37 C10-d=0.08 C3-d=0.08 H7-s=0.02 H14-s=0.02
 Alpha vir 157 OE=4.198 is C3-p=0.34 C10-p=0.34 C3-d=0.09 C10-d=0.09 C2-d=0.02 C9-d=0.02 C9-p=0.02 C2-p=0.02 H8-s=0.01 H15-s=0.01
 Alpha vir 158 OE=4.586 is C3-p=0.23 C10-p=0.23 C9-p=0.20 C2-p=0.20 C9-d=0.04 C2-d=0.04 C10-d=0.03 C3-d=0.03
 Alpha vir 159 OE=4.586 is Zn1-s=0.59 C9-p=0.09 C2-p=0.09 C3-p=0.08 C10-p=0.08 Zn1-d=0.03 C2-d=0.02 C9-d=0.02 C2-s=-0.02 C9-s=-0.02 C3-d=0.01 C10-d=0.01
 Alpha vir 160 OE=4.618 is Zn1-s=0.26 C9-p=0.17 C2-p=0.17 C3-p=0.14 C10-p=0.14 C2-d=0.02 C9-d=0.02 C3-d=0.02 C10-d=0.02 Zn1-d=0.01
 Alpha vir 161 OE=25.013 is C9-s=0.44 C2-s=0.44 C3-s=0.06 C10-s=0.06
 Alpha vir 162 OE=25.020 is C9-s=0.42 C2-s=0.42 C10-s=0.08 C3-s=0.08
 Alpha vir 163 OE=25.085 is C10-s=0.44 C3-s=0.44 C2-s=0.06 C9-s=0.06
 Alpha vir 164 OE=25.100 is C10-s=0.42 C3-s=0.42 C9-s=0.08 C2-s=0.08
 Alpha vir 165 OE=69.967 is Zn1-p=1.00
 Alpha vir 166 OE=69.975 is Zn1-p=1.00
 Alpha vir 167 OE=70.183 is Zn1-p=1.00
 Alpha vir 168 OE=89.692 is Zn1-s=0.99
 
 Orbital energies and kinetic energies (alpha):
                                 1                 2
   1         O               -11.210037         16.024616
   2         O               -11.210037         16.024647
   3         O               -11.188969         16.025507
   4         O               -11.188963         16.025642
   5         O                -5.914366          3.315140
   6         O                -3.924041          5.658383
   7         O                -3.923770          5.658911
   8         O                -3.919176          5.682087
   9         O                -0.996050          1.356664
  10         O                -0.991182          1.260299
  11         O                -0.831079          3.096287
  12         O                -0.809265          1.259604
  13         O                -0.776668         11.245779
  14         O                -0.776529         11.250660
  15         O                -0.773528         10.939520
  16         O                -0.772443         10.961102
  17         O                -0.743525          8.538683
  18         O                -0.581780          0.880206
  19         O                -0.577345          1.063479
  20         O                -0.559007          1.129316
  21         O                -0.556606          0.932093
  22         O                -0.491318          1.158954
  23         O                -0.488275          1.311138
  24         O                -0.472632          1.016411
  25         O                -0.468929          1.124471
  26         O                -0.406966          1.228046
  27         O                -0.339202          1.209025
  28         V                 0.022274          0.081465
  29         V                 0.087621          0.318336
  30         V                 0.090176          0.277369
  31         V                 0.134422          0.792230
  32         V                 0.171080          0.437892
  33         V                 0.202818          0.522022
  34         V                 0.215914          0.490996
  35         V                 0.220934          0.480985
  36         V                 0.230734          0.531146
  37         V                 0.232015          0.531273
  38         V                 0.234636          0.479793
  39         V                 0.247502          0.554362
  40         V                 0.263126          0.561304
  41         V                 0.279716          0.602131
  42         V                 0.302574          1.032584
  43         V                 0.333912          0.973756
  44         V                 0.343507          0.878005
  45         V                 0.349873          0.725372
  46         V                 0.357814          0.597754
  47         V                 0.376289          0.864513
  48         V                 0.416219          0.920571
  49         V                 0.424351          1.158727
  50         V                 0.432335          0.870696
  51         V                 0.453484          0.890780
  52         V                 0.471086          0.849956
  53         V                 0.484408          0.929201
  54         V                 0.498694          0.826680
  55         V                 0.549706          1.057185
  56         V                 0.564250          1.160405
  57         V                 0.584343          1.076116
  58         V                 0.643600          1.229527
  59         V                 0.663224          1.096987
  60         V                 0.708668          1.572625
  61         V                 0.733227          1.218625
  62         V                 0.775522          1.790137
  63         V                 0.775817          1.997182
  64         V                 0.807006          1.711994
  65         V                 0.809731          1.921355
  66         V                 0.820678          1.894912
  67         V                 0.829034          1.845206
  68         V                 0.837571          1.885332
  69         V                 0.853779          1.766466
  70         V                 0.862999          2.090972
  71         V                 0.865790          1.998870
  72         V                 0.878261          1.819582
  73         V                 0.881802          1.685774
  74         V                 0.896941          2.075409
  75         V                 0.922735          2.034848
  76         V                 1.027753          2.039456
  77         V                 1.038182          2.035658
  78         V                 1.178317          1.909114
  79         V                 1.190927          2.066050
  80         V                 1.281345          1.842141
  81         V                 1.296942          1.863044
  82         V                 1.361797          2.294622
  83         V                 1.382074          1.940327
  84         V                 1.521331          2.342965
  85         V                 1.534454          3.016023
  86         V                 1.540141          2.111078
  87         V                 1.606894          2.727239
  88         V                 1.628278          3.928643
  89         V                 1.681078          4.237036
  90         V                 1.693950          5.377774
  91         V                 1.709006          4.827846
  92         V                 1.741868          2.236753
  93         V                 1.745922          2.375331
  94         V                 1.746834          2.249141
  95         V                 1.763486          2.990568
  96         V                 1.776386          3.644349
  97         V                 1.798029          2.440477
  98         V                 1.809104          2.488543
  99         V                 1.863376          2.825228
 100         V                 1.865486          2.473195
 101         V                 1.869159          2.512920
 102         V                 1.894374          2.911473
 103         V                 1.915715          3.329859
 104         V                 1.947735          2.759778
 105         V                 1.987795          2.526197
 106         V                 2.020101          2.897528
 107         V                 2.027035          2.792120
 108         V                 2.066952          2.776584
 109         V                 2.083011          3.167059
 110         V                 2.144101          2.931580
 111         V                 2.149205          3.240685
 112         V                 2.252205          4.128538
 113         V                 2.283877          3.009790
 114         V                 2.303888          3.122132
 115         V                 2.370223          3.668588
 116         V                 2.370575          3.398197
 117         V                 2.388911          3.366714
 118         V                 2.397440          3.233988
 119         V                 2.450505          3.286755
 120         V                 2.521191          3.702488
 121         V                 2.585341          3.714856
 122         V                 2.617218          3.535652
 123         V                 2.624832          3.783206
 124         V                 2.635827          3.797091
 125         V                 2.712447          4.156339
 126         V                 2.738087          3.507111
 127         V                 2.749042          4.354433
 128         V                 2.786202          3.758199
 129         V                 2.798251          4.018735
 130         V                 2.844996          3.978724
 131         V                 2.864554          4.258704
 132         V                 2.871678          4.124113
 133         V                 2.896153          4.251524
 134         V                 2.899936          4.463106
 135         V                 2.935917          5.041243
 136         V                 2.953270          4.701553
 137         V                 2.969811          4.870456
 138         V                 2.985589          4.539205
 139         V                 3.005112          4.566627
 140         V                 3.025407          4.623668
 141         V                 3.040714          4.028996
 142         V                 3.046021          4.192796
 143         V                 3.131078          4.663592
 144         V                 3.172751          4.707030
 145         V                 3.242394          7.292810
 146         V                 3.258388          7.054620
 147         V                 3.380863          6.470162
 148         V                 3.474568          6.876777
 149         V                 3.519767          6.670996
 150         V                 3.816845          7.200094
 151         V                 3.858183          6.985203
 152         V                 4.148383          6.465587
 153         V                 4.167017          6.561734
 154         V                 4.192711          6.461738
 155         V                 4.194922          6.436655
 156         V                 4.196307          6.419722
 157         V                 4.198335          6.337904
 158         V                 4.585634          7.249986
 159         V                 4.586097          7.797961
 160         V                 4.617885          7.635406
 161         V                25.013189         60.362678
 162         V                25.020163         60.364988
 163         V                25.084984         60.447062
 164         V                25.100210         60.455216
 165         V                69.967390         55.652412
 166         V                69.975262         55.658819
 167         V                70.182615         55.815378
 168         V                89.692276         25.132728
 Total kinetic energy from orbitals= 3.107533413279D+02

 Test job not archived.
 1\1\GINC-GAMBA\SP\RHF\Gen\C4H10Zn1\IRIKURA\25-May-2017\0\\# HF/GEN gfi
 nput geom=check IOP(6/81=3) pseudo=read scf=xqc pop(all,thresh=1)\\BEB
  step 3: pseudopotential B and U for ZnEt2\\0,1\Zn,0,0.,0.,0.092059\C,
 0,0.,1.933945,0.090127\C,0,1.360973,2.577345,-0.233751\H,0,-0.346594,2
 .294125,1.069841\H,0,-0.75069,2.294418,-0.628225\H,0,1.311324,3.675407
 ,-0.22301\H,0,2.134924,2.28887,0.488877\H,0,1.727459,2.287037,-1.22662
 2\C,0,0.,-1.933945,0.090127\C,0,-1.360973,-2.577345,-0.233751\H,0,0.34
 6594,-2.294125,1.069841\H,0,0.75069,-2.294418,-0.628225\H,0,-1.311324,
 -3.675407,-0.22301\H,0,-2.134924,-2.28887,0.488877\H,0,-1.727459,-2.28
 7037,-1.226622\\Version=ES64L-G09RevD.01\State=1-A\HF=-383.2587565\RMS
 D=8.630e-09\Dipole=0.,0.,0.0249983\Quadrupole=1.3281088,-3.697749,2.36
 96402,-0.7888312,0.,0.\PG=C02 [C2(Zn1),X(C4H10)]\\@


 NOTHING MAKES A PERSON MORE PRODUCTIVE THAN THE LAST MINUTE.
 Job cpu time:       0 days  0 hours  0 minutes 20.6 seconds.
 File lengths (MBytes):  RWF=     13 Int=      0 D2E=      0 Chk=      3 Scr=      1
 Normal termination of Gaussian 09 at Thu May 25 16:01:29 2017.
