 Entering Gaussian System, Link 0=g09
 Initial command:
 /usr/local/apps/g09/l1.exe "/wrk/irikura/Gau-14891.inp" -scrdir="/wrk/irikura/"
 Entering Link 1 = /usr/local/apps/g09/l1.exe PID=     14893.
  
 Copyright (c) 1988,1990,1992,1993,1995,1998,2003,2009,2013,
            Gaussian, Inc.  All Rights Reserved.
  
 This is part of the Gaussian(R) 09 program.  It is based on
 the Gaussian(R) 03 system (copyright 2003, Gaussian, Inc.),
 the Gaussian(R) 98 system (copyright 1998, Gaussian, Inc.),
 the Gaussian(R) 94 system (copyright 1995, Gaussian, Inc.),
 the Gaussian 92(TM) system (copyright 1992, Gaussian, Inc.),
 the Gaussian 90(TM) system (copyright 1990, Gaussian, Inc.),
 the Gaussian 88(TM) system (copyright 1988, Gaussian, Inc.),
 the Gaussian 86(TM) system (copyright 1986, Carnegie Mellon
 University), and the Gaussian 82(TM) system (copyright 1983,
 Carnegie Mellon University). Gaussian is a federally registered
 trademark of Gaussian, Inc.
  
 This software contains proprietary and confidential information,
 including trade secrets, belonging to Gaussian, Inc.
  
 This software is provided under written license and may be
 used, copied, transmitted, or stored only in accord with that
 written license.
  
 The following legend is applicable only to US Government
 contracts under FAR:
  
                    RESTRICTED RIGHTS LEGEND
  
 Use, reproduction and disclosure by the US Government is
 subject to restrictions as set forth in subparagraphs (a)
 and (c) of the Commercial Computer Software - Restricted
 Rights clause in FAR 52.227-19.
  
 Gaussian, Inc.
 340 Quinnipiac St., Bldg. 40, Wallingford CT 06492
  
  
 ---------------------------------------------------------------
 Warning -- This program may not be used in any manner that
 competes with the business of Gaussian, Inc. or will provide
 assistance to any competitor of Gaussian, Inc.  The licensee
 of this program is prohibited from giving any competitor of
 Gaussian, Inc. access to this program.  By using this program,
 the user acknowledges that Gaussian, Inc. is engaged in the
 business of creating and licensing software in the field of
 computational chemistry and represents and warrants to the
 licensee that it is not a competitor of Gaussian, Inc. and that
 it will not use this program in any manner prohibited above.
 ---------------------------------------------------------------
  

 Cite this work as:
 Gaussian 09, Revision D.01,
 M. J. Frisch, G. W. Trucks, H. B. Schlegel, G. E. Scuseria, 
 M. A. Robb, J. R. Cheeseman, G. Scalmani, V. Barone, B. Mennucci, 
 G. A. Petersson, H. Nakatsuji, M. Caricato, X. Li, H. P. Hratchian, 
 A. F. Izmaylov, J. Bloino, G. Zheng, J. L. Sonnenberg, M. Hada, 
 M. Ehara, K. Toyota, R. Fukuda, J. Hasegawa, M. Ishida, T. Nakajima, 
 Y. Honda, O. Kitao, H. Nakai, T. Vreven, J. A. Montgomery, Jr., 
 J. E. Peralta, F. Ogliaro, M. Bearpark, J. J. Heyd, E. Brothers, 
 K. N. Kudin, V. N. Staroverov, T. Keith, R. Kobayashi, J. Normand, 
 K. Raghavachari, A. Rendell, J. C. Burant, S. S. Iyengar, J. Tomasi, 
 M. Cossi, N. Rega, J. M. Millam, M. Klene, J. E. Knox, J. B. Cross, 
 V. Bakken, C. Adamo, J. Jaramillo, R. Gomperts, R. E. Stratmann, 
 O. Yazyev, A. J. Austin, R. Cammi, C. Pomelli, J. W. Ochterski, 
 R. L. Martin, K. Morokuma, V. G. Zakrzewski, G. A. Voth, 
 P. Salvador, J. J. Dannenberg, S. Dapprich, A. D. Daniels, 
 O. Farkas, J. B. Foresman, J. V. Ortiz, J. Cioslowski, 
 and D. J. Fox, Gaussian, Inc., Wallingford CT, 2013.
 
 ******************************************
 Gaussian 09:  ES64L-G09RevD.01 24-Apr-2013
                26-May-2017 
 ******************************************
 %chk=ZnEt2.chk
 %nprocs=6
 Will use up to    6 processors via shared memory.
 %mem=4000mw
 --------------------------------------------------
 # HF/GEN geom=check guess=check scf=xqc stable=opt
 --------------------------------------------------
 1/29=2,38=1/1;
 2/12=2,40=1/2;
 3/5=7,11=2,14=-4,16=1,25=1,30=1,116=-2/1,2,3;
 4/5=1/1;
 5/5=2,8=3,13=1,38=6/2,8;
 6/7=2,8=2,9=2,10=2,28=1/1;
 8/6=1,10=90,11=11/1;
 9/8=-3,42=1,46=1/14;
 5/5=2,8=3,17=40,38=6/8(-2);
 6/7=2,8=2,9=2,10=2,28=1/1;
 99/5=1,9=1/99;
 --------------------------------------
 HF stabilization to precede BEB step 8
 --------------------------------------
 Structure from the checkpoint file:  "ZnEt2.chk"
 Charge =  1 Multiplicity = 2
 Redundant internal coordinates found in file.
 Zn,0,0.,0.,0.092059
 C,0,0.,1.933945,0.090127
 C,0,1.360973,2.577345,-0.233751
 H,0,-0.346594,2.294125,1.069841
 H,0,-0.75069,2.294418,-0.628225
 H,0,1.311324,3.675407,-0.22301
 H,0,2.134924,2.28887,0.488877
 H,0,1.727459,2.287037,-1.226622
 C,0,0.,-1.933945,0.090127
 C,0,-1.360973,-2.577345,-0.233751
 H,0,0.346594,-2.294125,1.069841
 H,0,0.75069,-2.294418,-0.628225
 H,0,-1.311324,-3.675407,-0.22301
 H,0,-2.134924,-2.28887,0.488877
 H,0,-1.727459,-2.287037,-1.226622
 Recover connectivity data from disk.
                          Input orientation:                          
 ---------------------------------------------------------------------
 Center     Atomic      Atomic             Coordinates (Angstroms)
 Number     Number       Type             X           Y           Z
 ---------------------------------------------------------------------
      1         30           0        0.000000    0.000000    0.092059
      2          6           0        0.000000    1.933945    0.090127
      3          6           0        1.360973    2.577345   -0.233751
      4          1           0       -0.346594    2.294125    1.069841
      5          1           0       -0.750690    2.294418   -0.628225
      6          1           0        1.311324    3.675407   -0.223010
      7          1           0        2.134924    2.288870    0.488877
      8          1           0        1.727459    2.287037   -1.226622
      9          6           0        0.000000   -1.933945    0.090127
     10          6           0       -1.360973   -2.577345   -0.233751
     11          1           0        0.346594   -2.294125    1.069841
     12          1           0        0.750690   -2.294418   -0.628225
     13          1           0       -1.311324   -3.675407   -0.223010
     14          1           0       -2.134924   -2.288870    0.488877
     15          1           0       -1.727459   -2.287037   -1.226622
 ---------------------------------------------------------------------
                    Distance matrix (angstroms):
                    1          2          3          4          5
     1  Zn   0.000000
     2  C    1.933946   0.000000
     3  C    2.932764   1.539840   0.000000
     4  H    2.517776   1.099862   2.166876   0.000000
     5  H    2.519265   1.099775   2.166744   1.745486   0.000000
     6  H    3.915029   2.202343   1.099236   2.515571   2.514604
     7  H    3.155042   2.200653   1.097456   2.548623   3.094304
     8  H    3.154928   2.200595   1.097444   3.094429   2.549383
     9  C    1.933946   3.867890   4.723228   4.353911   4.354150
    10  C    2.932764   4.723228   5.829221   5.143883   4.925660
    11  H    2.517776   4.353911   5.143883   4.640318   5.014199
    12  H    2.519265   4.354150   4.925660   5.014199   4.828204
    13  H    3.915029   5.769095   6.799867   6.183646   6.009769
    14  H    3.155042   4.748586   6.035191   4.953735   4.916355
    15  H    3.154928   4.747066   5.846915   5.307313   4.722487
                    6          7          8          9         10
     6  H    0.000000
     7  H    1.762834   0.000000
     8  H    1.762945   1.763227   0.000000
     9  C    5.769095   4.748586   4.747066   0.000000
    10  C    6.799867   6.035191   5.846915   1.539840   0.000000
    11  H    6.183646   4.953735   5.307313   1.099862   2.166876
    12  H    6.009769   4.916355   4.722487   1.099775   2.166744
    13  H    7.804662   6.925028   6.766992   2.202343   1.099236
    14  H    6.925028   6.259976   6.228954   2.200653   1.097456
    15  H    6.766992   6.228954   5.732243   2.200595   1.097444
                   11         12         13         14         15
    11  H    0.000000
    12  H    1.745486   0.000000
    13  H    2.515571   2.514604   0.000000
    14  H    2.548623   3.094304   1.762834   0.000000
    15  H    3.094429   2.549383   1.762945   1.763227   0.000000
 Stoichiometry    C4H10Zn(1+,2)
 Framework group  C2[C2(Zn),X(C4H10)]
 Deg. of freedom    20
 Full point group                 C2      NOp   2
 Largest Abelian subgroup         C2      NOp   2
 Largest concise Abelian subgroup C2      NOp   2
                         Standard orientation:                         
 ---------------------------------------------------------------------
 Center     Atomic      Atomic             Coordinates (Angstroms)
 Number     Number       Type             X           Y           Z
 ---------------------------------------------------------------------
      1         30           0        0.000000    0.000000    0.092059
      2          6           0        0.000000    1.933945    0.090127
      3          6           0        1.360973    2.577345   -0.233751
      4          1           0       -0.346594    2.294125    1.069841
      5          1           0       -0.750690    2.294418   -0.628225
      6          1           0        1.311324    3.675407   -0.223010
      7          1           0        2.134924    2.288870    0.488877
      8          1           0        1.727459    2.287037   -1.226622
      9          6           0        0.000000   -1.933945    0.090127
     10          6           0       -1.360973   -2.577345   -0.233751
     11          1           0        0.346594   -2.294125    1.069841
     12          1           0        0.750690   -2.294418   -0.628225
     13          1           0       -1.311324   -3.675407   -0.223010
     14          1           0       -2.134924   -2.288870    0.488877
     15          1           0       -1.727459   -2.287037   -1.226622
 ---------------------------------------------------------------------
 Rotational constants (GHZ):     14.6723335      1.3797086      1.3187032
 General basis read from cards:  (5D, 7F)
 There are   191 symmetry adapted cartesian basis functions of A   symmetry.
 There are   183 symmetry adapted cartesian basis functions of B   symmetry.
 There are   166 symmetry adapted basis functions of A   symmetry.
 There are   162 symmetry adapted basis functions of B   symmetry.
   328 basis functions,   725 primitive gaussians,   374 cartesian basis functions
    32 alpha electrons       31 beta electrons
       nuclear repulsion energy       320.7392817687 Hartrees.
 NAtoms=   15 NActive=   15 NUniq=    8 SFac= 3.52D+00 NAtFMM=   60 NAOKFM=F Big=F
 Integral buffers will be    131072 words long.
 Raffenetti 2 integral format.
 Two-electron integral symmetry is turned on.
 One-electron integrals computed using PRISM.
 NBasis=   328 RedAO= T EigKep=  6.20D-04  NBF=   166   162
 NBsUse=   328 1.00D-06 EigRej= -1.00D+00 NBFU=   166   162
 Initial guess from the checkpoint file:  "ZnEt2.chk"
 B after Tr=     0.000000    0.000000    0.000000
         Rot=    1.000000    0.000000    0.000000    0.000000 Ang=   0.00 deg.
 Initial guess orbital symmetries:
 Alpha Orbitals:
       Occupied  (A) (A) (B) (B) (B) (?A) (?A) (?A) (?A) (?B) (B)
                 (?B) (?B) (?C) (?C) (?C) (?C) (?C) (?C) (?C) (?C)
                 (?C) (?C) (?C) (?C) (?C) (?C) (?C) (?C) (?C) (?C)
                 (?C)
       Virtual   (?C) (?C) (?C) (?C) (?C) (?C) (?C) (?C) (?C) (?C)
                 (?C) (?C) (?C) (?C) (?C) (?C) (?C) (?C) (?C) (?C)
                 (?C) (?C) (?C) (?C) (?C) (?C) (?C) (?C) (?C) (?C)
                 (?C) (?C) (?C) (?C) (?C) (?C) (?C) (?C) (?C) (?C)
                 (?C) (?C) (?C) (?C) (?C) (?C) (?C) (?C) (?C) (?C)
                 (?C) (?C) (?C) (?C) (?C) (?C) (?C) (?C) (?C) (?C)
                 (?C) (?C) (?C) (?C) (?C) (?C) (?C) (?C) (?C) (?C)
                 (?C) (?C) (?C) (?C) (?C) (?C) (?C) (?C) (?C) (?C)
                 (?C) (?C) (?C) (?C) (?C) (?C) (?C) (?C) (?C) (?C)
                 (?C) (?C) (?C) (?C) (?C) (?C) (?C) (?C) (?C) (?C)
                 (?C) (?C) (?C) (?C) (?C) (?C) (?C) (?C) (?C) (?C)
                 (?C) (?C) (?C) (?C) (?C) (?C) (?C) (?C) (?C) (?C)
                 (?C) (?C) (?C) (?C) (?C) (?C) (?C) (?C) (?C) (?C)
                 (?C) (?C) (?C) (?C) (?C) (?C) (?C) (?C) (?C) (?C)
                 (?C) (?C) (?C) (?C) (?C) (?C) (?C) (?C) (?C) (?C)
                 (?C) (?C) (?C) (?C) (?C) (?C) (?C) (?C) (?C) (?C)
                 (?C) (?C) (?C) (?C) (?C) (?C) (?C) (?C) (?C) (?C)
                 (?C) (?C) (?C) (?C) (?C) (?C) (?C) (?C) (?C) (?C)
                 (?C) (?C) (?C) (?C) (?C) (?C) (?C) (?C) (?C) (?C)
                 (?C) (?C) (?C) (?C) (?C) (?C) (?C) (?C) (?C) (?C)
                 (?C) (?C) (?C) (?C) (?C) (?C) (?C) (?C) (?C) (?C)
                 (?C) (?C) (?C) (?C) (?C) (?C) (?C) (?C) (?C) (?C)
                 (?C) (?C) (?C) (?C) (?C) (?C) (?C) (?C) (?C) (?C)
                 (?C) (?C) (?C) (?C) (?C) (?C) (?C) (?C) (?C) (?C)
                 (?C) (?C) (?C) (?C) (?C) (?C) (?C) (?C) (?C) (?C)
                 (?C) (?C) (?C) (?C) (?C) (?C) (?C) (?C) (?C) (?C)
                 (?C) (?C) (?C) (?C) (?C) (?D) (?D) (?D) (?D) (?D)
                 (?D) (B) (A) (?A) (?A) (A) (?A) (?A) (?A) (?A)
                 (?E) (?E) (?E) (?E) (?E) (?E) (?E) (?E) (?E) (?E)
                 (?E) (?E) (?E) (?E) (?E) (?E)
 Beta  Orbitals:
       Occupied  (A) (A) (B) (B) (B) (?A) (?A) (?A) (?A) (?B) (?B)
                 (?B) (?B) (?C) (?C) (?C) (?C) (?C) (?C) (?C) (?C)
                 (?C) (?C) (?C) (?C) (?C) (?C) (?C) (?C) (?C) (?C)
       Virtual   (?C) (?C) (?C) (?C) (?C) (?C) (?C) (?C) (?C) (?C)
                 (?C) (?C) (?C) (?C) (?C) (?C) (?C) (?C) (?C) (?C)
                 (?C) (?C) (?C) (?C) (?C) (?C) (?C) (?C) (?C) (?C)
                 (?C) (?C) (?C) (?C) (?C) (?C) (?C) (?C) (?C) (?C)
                 (?C) (?C) (?C) (?C) (?C) (?C) (?C) (?C) (?C) (?C)
                 (?C) (?C) (?C) (?C) (?C) (?C) (?C) (?C) (?C) (?C)
                 (?C) (?C) (?C) (?C) (?C) (?C) (?C) (?C) (?C) (?C)
                 (?C) (?C) (?C) (?C) (?C) (?C) (?C) (?C) (?C) (?C)
                 (?C) (?C) (?C) (?C) (?C) (?C) (?C) (?C) (?C) (?C)
                 (?C) (?C) (?C) (?C) (?C) (?C) (?C) (?C) (?C) (?C)
                 (?C) (?C) (?C) (?C) (?C) (?C) (?C) (?C) (?C) (?C)
                 (?C) (?C) (?C) (?C) (?C) (?C) (?C) (?C) (?C) (?C)
                 (?C) (?C) (?C) (?C) (?C) (?C) (?C) (?C) (?C) (?C)
                 (?C) (?C) (?C) (?C) (?C) (?C) (?C) (?C) (?C) (?C)
                 (?C) (?C) (?C) (?C) (?C) (?C) (?C) (?C) (?C) (?C)
                 (?C) (?C) (?C) (?C) (?C) (?C) (?C) (?C) (?C) (?C)
                 (?C) (?C) (?C) (?C) (?C) (?C) (?C) (?C) (?C) (?C)
                 (?C) (?C) (?C) (?C) (?C) (?C) (?C) (?C) (?C) (?C)
                 (?C) (?C) (?C) (?C) (?C) (?C) (?C) (?C) (?C) (?C)
                 (?C) (?C) (?C) (?C) (?C) (?C) (?C) (?C) (?C) (?C)
                 (?C) (?C) (?C) (?C) (?C) (?C) (?C) (?C) (?C) (?C)
                 (?C) (?C) (?C) (?C) (?C) (?C) (?C) (?C) (?C) (?C)
                 (?C) (?C) (?C) (?C) (?C) (?C) (?C) (?C) (?C) (?C)
                 (?C) (?C) (?C) (?C) (?C) (?C) (?C) (?C) (?C) (?C)
                 (?C) (?C) (?C) (?C) (?C) (?C) (?C) (?C) (?C) (?C)
                 (?C) (?C) (?C) (?C) (?C) (?C) (?C) (?C) (?C) (?C)
                 (?C) (?C) (?C) (?C) (?C) (?C) (?D) (?D) (?D) (?D)
                 (?D) (?D) (B) (A) (?A) (?A) (A) (?A) (?A) (?A)
                 (?A) (?E) (?E) (?E) (?E) (?E) (?E) (?E) (?E) (?E)
                 (?E) (?E) (?E) (?E) (?E) (?E) (?E)
 Initial guess <Sx>= 0.0000 <Sy>= 0.0000 <Sz>= 0.5000 <S**2>= 0.8634 S= 0.5552
 Keep R1 and R2 ints in memory in symmetry-blocked form, NReq=2184082506.
 Requested convergence on RMS density matrix=1.00D-08 within  64 cycles.
 Requested convergence on MAX density matrix=1.00D-06.
 Requested convergence on             energy=1.00D-06.
 No special actions if energy rises.
 An orbital has undefined symmetry, so N**3 symmetry is turned off.
 Density matrix breaks symmetry, PCut= 1.00D-04
 Density matrix has no symmetry -- integrals replicated.
 Density matrix breaks symmetry, PCut= 1.00D-07
 Density matrix has no symmetry -- integrals replicated.
 Density matrix breaks symmetry, PCut= 1.00D-07
 Density matrix has no symmetry -- integrals replicated.
 Density matrix breaks symmetry, PCut= 1.00D-07
 Density matrix has no symmetry -- integrals replicated.
 Density matrix breaks symmetry, PCut= 1.00D-07
 Density matrix has no symmetry -- integrals replicated.
 Density matrix breaks symmetry, PCut= 1.00D-07
 Density matrix has no symmetry -- integrals replicated.
 Density matrix breaks symmetry, PCut= 1.00D-07
 Density matrix has no symmetry -- integrals replicated.
 Density matrix breaks symmetry, PCut= 1.00D-07
 Density matrix has no symmetry -- integrals replicated.
 Density matrix breaks symmetry, PCut= 1.00D-07
 Density matrix has no symmetry -- integrals replicated.
 Density matrix breaks symmetry, PCut= 1.00D-07
 Density matrix has no symmetry -- integrals replicated.
 Density matrix breaks symmetry, PCut= 1.00D-07
 Density matrix has no symmetry -- integrals replicated.
 Density matrix breaks symmetry, PCut= 1.00D-07
 Density matrix has no symmetry -- integrals replicated.
 Density matrix breaks symmetry, PCut= 1.00D-07
 Density matrix has no symmetry -- integrals replicated.
 Density matrix breaks symmetry, PCut= 1.00D-07
 Density matrix has no symmetry -- integrals replicated.
 Density matrix breaks symmetry, PCut= 1.00D-07
 Density matrix has no symmetry -- integrals replicated.
 Density matrix breaks symmetry, PCut= 1.00D-07
 Density matrix has no symmetry -- integrals replicated.
 Density matrix breaks symmetry, PCut= 1.00D-07
 Density matrix has no symmetry -- integrals replicated.
 Density matrix breaks symmetry, PCut= 1.00D-07
 Density matrix has no symmetry -- integrals replicated.
 Density matrix breaks symmetry, PCut= 1.00D-07
 Density matrix has no symmetry -- integrals replicated.
 Density matrix breaks symmetry, PCut= 1.00D-07
 Density matrix has no symmetry -- integrals replicated.
 Density matrix breaks symmetry, PCut= 1.00D-07
 Density matrix has no symmetry -- integrals replicated.
 SCF Done:  E(UHF) =  -1934.87276988     A.U. after   20 cycles
            NFock= 20  Conv=0.33D-08     -V/T= 2.0000
 <Sx>= 0.0000 <Sy>= 0.0000 <Sz>= 0.5000 <S**2>= 0.8626 S= 0.5548
 <L.S>= 0.000000000000E+00
 Annihilation of the first spin contaminant:
 S**2 before annihilation     0.8626,   after     0.7518
 QCSCF skips out because SCF is already converged.

 **********************************************************************

            Population analysis using the SCF density.

 **********************************************************************

 Orbital symmetries:
 Alpha Orbitals:
       Occupied  (A) (A) (B) (A) (B) (?A) (?A) (?A) (?A) (A) (B)
                 (B) (A) (A) (B) (A) (B) (A) (B) (A) (B) (A) (A)
                 (B) (A) (B) (B) (A) (A) (B) (A) (B)
       Virtual   (A) (B) (A) (B) (A) (A) (A) (B) (B) (A) (B) (B)
                 (A) (A) (B) (A) (B) (A) (B) (A) (B) (B) (A) (A)
                 (B) (B) (A) (B) (A) (B) (A) (A) (B) (B) (B) (A)
                 (B) (A) (A) (B) (A) (B) (A) (A) (B) (A) (B) (A)
                 (B) (B) (A) (A) (B) (A) (B) (A) (B) (B) (A) (B)
                 (A) (B) (A) (B) (B) (A) (A) (B) (A) (B) (A) (B)
                 (B) (A) (A) (A) (B) (B) (B) (A) (B) (A) (A) (A)
                 (A) (B) (B) (A) (B) (A) (A) (B) (B) (A) (A) (B)
                 (B) (A) (A) (B) (B) (A) (B) (A) (B) (B) (A) (B)
                 (A) (A) (B) (A) (B) (A) (B) (A) (B) (B) (A) (A)
                 (B) (B) (A) (A) (B) (A) (B) (A) (A) (B) (B) (B)
                 (A) (B) (A) (B) (A) (A) (A) (B) (B) (B) (A) (A)
                 (A) (B) (B) (B) (A) (B) (A) (A) (B) (A) (B) (B)
                 (A) (B) (A) (A) (B) (A) (B) (B) (A) (A) (B) (A)
                 (A) (B) (A) (B) (A) (B) (A) (B) (B) (A) (B) (A)
                 (B) (B) (A) (A) (B) (A) (B) (B) (B) (A) (A) (A)
                 (B) (A) (B) (A) (A) (B) (B) (B) (A) (A) (B) (A)
                 (B) (A) (B) (A) (B) (A) (A) (B) (B) (A) (B) (A)
                 (A) (B) (A) (B) (B) (A) (A) (B) (A) (B) (B) (A)
                 (A) (B) (B) (A) (B) (A) (B) (A) (A) (B) (B) (A)
                 (A) (B) (B) (B) (A) (A) (B) (A) (A) (B) (B) (A)
                 (B) (B) (A) (B) (A) (A) (B) (B) (A) (A) (B) (A)
                 (B) (B) (A) (A) (B) (B) (A) (B) (A) (B) (A) (A)
                 (A) (B) (B) (A) (A) (B) (B) (A) (A) (B) (B) (A)
                 (B) (B) (A) (A) (B) (A) (B) (A)
 Beta  Orbitals:
       Occupied  (A) (A) (B) (A) (B) (A) (B) (?A) (?A) (A) (B)
                 (A) (B) (A) (B) (A) (B) (B) (A) (A) (B) (A) (A)
                 (B) (A) (B) (B) (A) (A) (B) (A)
       Virtual   (B) (B) (A) (A) (B) (A) (A) (B) (A) (B) (B) (B)
                 (A) (A) (A) (B) (A) (B) (A) (B) (A) (B) (B) (A)
                 (B) (A) (B) (A) (B) (A) (B) (A) (A) (B) (B) (A)
                 (B) (B) (A) (B) (A) (A) (B) (A) (A) (B) (A) (B)
                 (A) (B) (B) (A) (A) (A) (B) (B) (A) (B) (A) (B)
                 (B) (A) (B) (A) (B) (B) (A) (A) (B) (A) (B) (B)
                 (A) (B) (A) (A) (A) (B) (B) (A) (B) (B) (A) (A)
                 (A) (A) (B) (B) (A) (B) (A) (A) (B) (B) (A) (A)
                 (B) (B) (A) (A) (B) (B) (A) (B) (A) (B) (B) (A)
                 (B) (A) (A) (B) (A) (B) (A) (B) (A) (B) (B) (A)
                 (A) (B) (B) (A) (A) (B) (B) (A) (A) (A) (B) (B)
                 (B) (A) (B) (A) (B) (A) (A) (A) (B) (B) (B) (A)
                 (A) (B) (A) (B) (B) (A) (B) (A) (A) (B) (A) (B)
                 (B) (A) (B) (A) (A) (B) (A) (B) (B) (A) (A) (B)
                 (A) (A) (B) (A) (B) (A) (B) (A) (B) (B) (A) (B)
                 (A) (B) (B) (A) (A) (B) (A) (B) (B) (B) (A) (A)
                 (A) (B) (A) (B) (A) (A) (B) (B) (B) (A) (A) (B)
                 (A) (B) (A) (B) (A) (B) (A) (A) (B) (B) (A) (B)
                 (A) (A) (B) (A) (B) (B) (A) (A) (B) (A) (B) (B)
                 (A) (A) (B) (B) (A) (B) (A) (B) (A) (A) (B) (B)
                 (A) (A) (B) (B) (B) (A) (A) (B) (A) (A) (B) (B)
                 (A) (B) (B) (A) (B) (A) (A) (B) (B) (A) (A) (B)
                 (A) (B) (B) (A) (A) (B) (B) (A) (B) (A) (B) (A)
                 (A) (A) (B) (B) (A) (A) (B) (B) (A) (A) (B) (B)
                 (A) (B) (B) (A) (A) (B) (A) (B) (A)
 Unable to determine electronic state:  an orbital has unidentified symmetry.
 Alpha  occ. eigenvalues -- -353.53853 -44.59868 -39.16334 -39.16325 -39.16149
 Alpha  occ. eigenvalues --  -11.44362 -11.44362 -11.38914 -11.38914  -5.87567
 Alpha  occ. eigenvalues --   -4.08531  -4.07729  -4.07713  -1.22091  -1.20994
 Alpha  occ. eigenvalues --   -1.06380  -1.02878  -1.02649  -1.02338  -1.02216
 Alpha  occ. eigenvalues --   -1.02165  -0.98661  -0.78934  -0.78313  -0.76484
 Alpha  occ. eigenvalues --   -0.76231  -0.69929  -0.69837  -0.66919  -0.66720
 Alpha  occ. eigenvalues --   -0.64121  -0.61686
 Alpha virt. eigenvalues --   -0.08683  -0.08187  -0.07985  -0.00666   0.03577
 Alpha virt. eigenvalues --    0.03957   0.05481   0.05484   0.06150   0.06585
 Alpha virt. eigenvalues --    0.07265   0.08990   0.11115   0.11559   0.13218
 Alpha virt. eigenvalues --    0.15527   0.16776   0.18212   0.21244   0.23275
 Alpha virt. eigenvalues --    0.24149   0.24949   0.25058   0.25757   0.25929
 Alpha virt. eigenvalues --    0.29928   0.31688   0.38502   0.40997   0.42856
 Alpha virt. eigenvalues --    0.43210   0.43740   0.44609   0.45151   0.45449
 Alpha virt. eigenvalues --    0.46659   0.48252   0.49745   0.50727   0.50928
 Alpha virt. eigenvalues --    0.51720   0.53533   0.53843   0.54967   0.56696
 Alpha virt. eigenvalues --    0.58464   0.58924   0.63285   0.63757   0.70303
 Alpha virt. eigenvalues --    0.72313   0.74239   0.78122   0.78664   0.80185
 Alpha virt. eigenvalues --    0.82378   0.85270   0.88389   0.88756   0.89079
 Alpha virt. eigenvalues --    0.93136   0.94438   0.97348   0.99021   1.01005
 Alpha virt. eigenvalues --    1.01312   1.06519   1.06743   1.08616   1.09776
 Alpha virt. eigenvalues --    1.11475   1.11617   1.12096   1.13015   1.14047
 Alpha virt. eigenvalues --    1.16695   1.19042   1.19393   1.19863   1.19913
 Alpha virt. eigenvalues --    1.21554   1.22614   1.26360   1.28068   1.31472
 Alpha virt. eigenvalues --    1.31806   1.33577   1.34322   1.35594   1.36281
 Alpha virt. eigenvalues --    1.39993   1.40172   1.41348   1.42855   1.45737
 Alpha virt. eigenvalues --    1.47539   1.48016   1.54136   1.55423   1.57141
 Alpha virt. eigenvalues --    1.59488   1.63465   1.65393   1.73434   1.75267
 Alpha virt. eigenvalues --    2.31485   2.33722   2.35478   2.37850   2.42741
 Alpha virt. eigenvalues --    2.47315   2.48513   2.48944   2.51136   2.53031
 Alpha virt. eigenvalues --    2.56786   2.57902   2.60172   2.61247   2.67284
 Alpha virt. eigenvalues --    2.68052   2.69764   2.72878   2.73866   2.74502
 Alpha virt. eigenvalues --    2.80445   2.81597   2.84401   2.86982   2.87890
 Alpha virt. eigenvalues --    2.91008   2.91213   2.92484   2.92991   2.94072
 Alpha virt. eigenvalues --    2.96586   2.97002   2.97704   3.01202   3.02328
 Alpha virt. eigenvalues --    3.04002   3.07682   3.10063   3.11507   3.12912
 Alpha virt. eigenvalues --    3.12949   3.13458   3.15160   3.17301   3.20282
 Alpha virt. eigenvalues --    3.22157   3.22942   3.23146   3.25082   3.26398
 Alpha virt. eigenvalues --    3.27328   3.29400   3.32408   3.32434   3.35648
 Alpha virt. eigenvalues --    3.38021   3.38533   3.40615   3.42872   3.44844
 Alpha virt. eigenvalues --    3.48719   3.48847   3.50255   3.57367   3.57939
 Alpha virt. eigenvalues --    3.59468   3.59781   3.60550   3.62384   3.63545
 Alpha virt. eigenvalues --    3.64927   3.67593   3.69546   3.70218   3.79997
 Alpha virt. eigenvalues --    3.80064   3.81720   3.82225   3.88778   3.90991
 Alpha virt. eigenvalues --    3.92500   3.92537   3.93343   3.95584   3.96333
 Alpha virt. eigenvalues --    3.98106   3.99894   4.02395   4.03112   4.03782
 Alpha virt. eigenvalues --    4.04136   4.10466   4.13302   4.14469   4.15542
 Alpha virt. eigenvalues --    4.15996   4.18963   4.19021   4.21588   4.23086
 Alpha virt. eigenvalues --    4.23218   4.23998   4.25703   4.26819   4.27449
 Alpha virt. eigenvalues --    4.27684   4.29753   4.30056   4.34848   4.39353
 Alpha virt. eigenvalues --    4.40358   4.41651   4.41734   4.42322   4.46032
 Alpha virt. eigenvalues --    4.48685   4.49524   4.50176   4.51245   4.57668
 Alpha virt. eigenvalues --    4.59143   4.64737   4.74447   4.77201   4.77275
 Alpha virt. eigenvalues --    4.83269   4.84048   4.84242   4.89888   4.97048
 Alpha virt. eigenvalues --    4.98187   4.98657   4.98724   4.99647   5.03852
 Alpha virt. eigenvalues --    5.04722   5.04822   5.06635   5.12364   5.13068
 Alpha virt. eigenvalues --    5.13515   5.24136   5.26807   5.34209   5.35015
 Alpha virt. eigenvalues --    5.37083   5.39568   5.40592   5.46535   5.47624
 Alpha virt. eigenvalues --    5.52901   5.53002   5.53112   5.53468   5.55646
 Alpha virt. eigenvalues --    5.57110   5.60060   5.61169   5.65097   5.65982
 Alpha virt. eigenvalues --    6.09854   6.10959   6.12296   6.12354   6.13230
 Alpha virt. eigenvalues --    6.14678  10.68884  10.71321  10.96542  11.00211
 Alpha virt. eigenvalues --   11.44537  12.00461  12.10197  13.60317  13.63133
 Alpha virt. eigenvalues --   16.00610  16.00625  16.02452  16.02852  16.08782
 Alpha virt. eigenvalues --   16.09201  16.22534  16.69148  16.69148  16.69370
 Alpha virt. eigenvalues --   16.69371  16.69581  16.69612  16.70104  16.70112
 Alpha virt. eigenvalues --   16.71105
  Beta  occ. eigenvalues -- -353.53864 -44.59930 -39.16303 -39.16294 -39.15910
  Beta  occ. eigenvalues --  -11.42905 -11.42904 -11.38972 -11.38972  -5.87702
  Beta  occ. eigenvalues --   -4.07936  -4.07924  -4.07524  -1.18484  -1.17757
  Beta  occ. eigenvalues --   -1.03886  -1.02562  -1.02366  -1.02360  -1.02230
  Beta  occ. eigenvalues --   -0.99169  -0.97043  -0.78012  -0.77455  -0.72672
  Beta  occ. eigenvalues --   -0.72402  -0.68824  -0.68724  -0.66462  -0.66242
  Beta  occ. eigenvalues --   -0.52818
  Beta virt. eigenvalues --   -0.22924  -0.09274  -0.09152  -0.06592  -0.00431
  Beta virt. eigenvalues --    0.04021   0.04310   0.05470   0.05824   0.06336
  Beta virt. eigenvalues --    0.07422   0.08989   0.09487   0.11161   0.11581
  Beta virt. eigenvalues --    0.13313   0.15200   0.17149   0.19199   0.22146
  Beta virt. eigenvalues --    0.23453   0.24335   0.25059   0.25435   0.26437
  Beta virt. eigenvalues --    0.26747   0.31229   0.34344   0.39600   0.41059
  Beta virt. eigenvalues --    0.43933   0.44218   0.44919   0.45646   0.46059
  Beta virt. eigenvalues --    0.47026   0.47475   0.49154   0.50661   0.51092
  Beta virt. eigenvalues --    0.51148   0.52033   0.53736   0.54292   0.55677
  Beta virt. eigenvalues --    0.58196   0.58543   0.59770   0.64154   0.64469
  Beta virt. eigenvalues --    0.70593   0.72782   0.74986   0.78764   0.79121
  Beta virt. eigenvalues --    0.80263   0.82564   0.86147   0.88984   0.89153
  Beta virt. eigenvalues --    0.90686   0.93461   0.94715   0.98068   0.99088
  Beta virt. eigenvalues --    1.01170   1.01492   1.06917   1.07397   1.09189
  Beta virt. eigenvalues --    1.10187   1.11934   1.12202   1.12602   1.13752
  Beta virt. eigenvalues --    1.14852   1.18057   1.19427   1.19821   1.20083
  Beta virt. eigenvalues --    1.20149   1.21899   1.23250   1.26780   1.29224
  Beta virt. eigenvalues --    1.32382   1.33802   1.34238   1.34945   1.35966
  Beta virt. eigenvalues --    1.37153   1.40633   1.40946   1.41601   1.43182
  Beta virt. eigenvalues --    1.46603   1.48174   1.48566   1.54914   1.55895
  Beta virt. eigenvalues --    1.58170   1.60082   1.63812   1.65821   1.74090
  Beta virt. eigenvalues --    1.76076   2.31740   2.33991   2.36365   2.38759
  Beta virt. eigenvalues --    2.43390   2.47852   2.49117   2.49502   2.51487
  Beta virt. eigenvalues --    2.53387   2.57053   2.60242   2.62238   2.63353
  Beta virt. eigenvalues --    2.67794   2.68606   2.70777   2.73777   2.75430
  Beta virt. eigenvalues --    2.75581   2.81511   2.81912   2.84473   2.88852
  Beta virt. eigenvalues --    2.89213   2.91495   2.92753   2.92853   2.93267
  Beta virt. eigenvalues --    2.94591   2.96800   2.97543   2.98162   3.01787
  Beta virt. eigenvalues --    3.03009   3.04625   3.08487   3.10368   3.11863
  Beta virt. eigenvalues --    3.13270   3.13714   3.13753   3.15923   3.18181
  Beta virt. eigenvalues --    3.21377   3.22596   3.23111   3.23374   3.25275
  Beta virt. eigenvalues --    3.26779   3.28786   3.31461   3.33624   3.34154
  Beta virt. eigenvalues --    3.37451   3.39217   3.39527   3.41861   3.43987
  Beta virt. eigenvalues --    3.45554   3.48883   3.49001   3.50685   3.57604
  Beta virt. eigenvalues --    3.58076   3.59613   3.60088   3.60788   3.62614
  Beta virt. eigenvalues --    3.64006   3.65298   3.68034   3.69954   3.71046
  Beta virt. eigenvalues --    3.80228   3.80801   3.82088   3.83098   3.89342
  Beta virt. eigenvalues --    3.91148   3.92710   3.92928   3.93697   3.95911
  Beta virt. eigenvalues --    3.96670   3.98829   4.00243   4.02621   4.03394
  Beta virt. eigenvalues --    4.04117   4.04606   4.10841   4.13881   4.14676
  Beta virt. eigenvalues --    4.15888   4.16131   4.18868   4.18908   4.22277
  Beta virt. eigenvalues --    4.23524   4.23592   4.24222   4.26134   4.26889
  Beta virt. eigenvalues --    4.27491   4.27728   4.29872   4.30270   4.35355
  Beta virt. eigenvalues --    4.39486   4.40490   4.41718   4.41804   4.42374
  Beta virt. eigenvalues --    4.46127   4.49032   4.49791   4.50276   4.51400
  Beta virt. eigenvalues --    4.58267   4.59723   4.65106   4.74837   4.77166
  Beta virt. eigenvalues --    4.77294   4.83649   4.84441   4.84640   4.90560
  Beta virt. eigenvalues --    4.97580   4.98365   4.98842   4.98913   4.99981
  Beta virt. eigenvalues --    5.04203   5.05009   5.05111   5.07037   5.12714
  Beta virt. eigenvalues --    5.13389   5.13769   5.24491   5.27102   5.34634
  Beta virt. eigenvalues --    5.35443   5.37384   5.39750   5.41103   5.46746
  Beta virt. eigenvalues --    5.47790   5.53055   5.53158   5.53402   5.53838
  Beta virt. eigenvalues --    5.55802   5.57318   5.60298   5.61403   5.65537
  Beta virt. eigenvalues --    5.66462   6.10280   6.11074   6.12473   6.12486
  Beta virt. eigenvalues --    6.13468   6.15183  10.68827  10.71268  10.96623
  Beta virt. eigenvalues --   11.00298  11.44854  12.01375  12.11121  13.60332
  Beta virt. eigenvalues --   13.63148  16.00428  16.00444  16.02501  16.02902
  Beta virt. eigenvalues --   16.09068  16.09489  16.22926  16.69124  16.69124
  Beta virt. eigenvalues --   16.69369  16.69370  16.69610  16.69641  16.70158
  Beta virt. eigenvalues --   16.70165  16.71171
          Condensed to atoms (all electrons):
               1          2          3          4          5          6
     1  Zn  28.819287   0.220948  -0.027006  -0.011199  -0.010617   0.005787
     2  C    0.220948   5.088183   0.321287   0.414419   0.414509  -0.022148
     3  C   -0.027006   0.321287   4.809517  -0.031477  -0.031518   0.407047
     4  H   -0.011199   0.414419  -0.031477   0.501975  -0.029924  -0.004520
     5  H   -0.010617   0.414509  -0.031518  -0.029924   0.500678  -0.004577
     6  H    0.005787  -0.022148   0.407047  -0.004520  -0.004577   0.506037
     7  H   -0.002662  -0.031720   0.418046  -0.004070   0.004886  -0.024496
     8  H   -0.002681  -0.032310   0.417869   0.004959  -0.004108  -0.024366
     9  C    0.220948  -0.007129  -0.000122  -0.000331  -0.000398  -0.000003
    10  C   -0.027006  -0.000122   0.000004   0.000025   0.000030  -0.000001
    11  H   -0.011199  -0.000331   0.000025   0.000008   0.000034  -0.000001
    12  H   -0.010618  -0.000398   0.000030   0.000034   0.000024  -0.000001
    13  H    0.005787  -0.000003  -0.000001  -0.000001  -0.000001   0.000000
    14  H   -0.002662  -0.000028  -0.000001   0.000021   0.000010   0.000000
    15  H   -0.002681  -0.000024   0.000003  -0.000002   0.000041   0.000000
               7          8          9         10         11         12
     1  Zn  -0.002662  -0.002681   0.220948  -0.027006  -0.011199  -0.010618
     2  C   -0.031720  -0.032310  -0.007129  -0.000122  -0.000331  -0.000398
     3  C    0.418046   0.417869  -0.000122   0.000004   0.000025   0.000030
     4  H   -0.004070   0.004959  -0.000331   0.000025   0.000008   0.000034
     5  H    0.004886  -0.004108  -0.000398   0.000030   0.000034   0.000024
     6  H   -0.024496  -0.024366  -0.000003  -0.000001  -0.000001  -0.000001
     7  H    0.547815  -0.032444  -0.000028  -0.000001   0.000021   0.000010
     8  H   -0.032444   0.548915  -0.000024   0.000003  -0.000002   0.000041
     9  C   -0.000028  -0.000024   5.088183   0.321287   0.414419   0.414509
    10  C   -0.000001   0.000003   0.321287   4.809517  -0.031477  -0.031518
    11  H    0.000021  -0.000002   0.414419  -0.031477   0.501975  -0.029924
    12  H    0.000010   0.000041   0.414509  -0.031518  -0.029924   0.500678
    13  H    0.000000   0.000000  -0.022148   0.407047  -0.004520  -0.004577
    14  H    0.000000   0.000001  -0.031720   0.418046  -0.004070   0.004886
    15  H    0.000001  -0.000002  -0.032310   0.417869   0.004959  -0.004108
              13         14         15
     1  Zn   0.005787  -0.002662  -0.002681
     2  C   -0.000003  -0.000028  -0.000024
     3  C   -0.000001  -0.000001   0.000003
     4  H   -0.000001   0.000021  -0.000002
     5  H   -0.000001   0.000010   0.000041
     6  H    0.000000   0.000000   0.000000
     7  H    0.000000   0.000000   0.000001
     8  H    0.000000   0.000001  -0.000002
     9  C   -0.022148  -0.031720  -0.032310
    10  C    0.407047   0.418046   0.417869
    11  H   -0.004520  -0.004070   0.004959
    12  H   -0.004577   0.004886  -0.004108
    13  H    0.506037  -0.024496  -0.024366
    14  H   -0.024496   0.547815  -0.032444
    15  H   -0.024366  -0.032444   0.548916
          Atomic-Atomic Spin Densities.
               1          2          3          4          5          6
     1  Zn  -0.424492   0.049935   0.006822   0.009472   0.009703  -0.001569
     2  C    0.049935   0.597362  -0.021445   0.004340   0.004385  -0.009003
     3  C    0.006822  -0.021445  -0.025433   0.001232   0.001206   0.009630
     4  H    0.009472   0.004340   0.001232  -0.016707   0.001384  -0.000509
     5  H    0.009703   0.004385   0.001206   0.001384  -0.017061  -0.000483
     6  H   -0.001569  -0.009003   0.009630  -0.000509  -0.000483   0.044341
     7  H    0.001978  -0.001711   0.001537   0.000156  -0.000137  -0.001688
     8  H    0.001912  -0.001755   0.001586  -0.000127   0.000156  -0.001752
     9  C    0.049935  -0.011406   0.000630   0.000130   0.000123  -0.000036
    10  C    0.006822   0.000630  -0.000024  -0.000031  -0.000047   0.000001
    11  H    0.009472   0.000130  -0.000031  -0.000027  -0.000014   0.000001
    12  H    0.009703   0.000123  -0.000047  -0.000014  -0.000019   0.000002
    13  H   -0.001569  -0.000036   0.000001   0.000001   0.000002   0.000000
    14  H    0.001978   0.000043  -0.000002  -0.000008  -0.000009   0.000000
    15  H    0.001912   0.000055  -0.000003  -0.000004  -0.000013   0.000000
               7          8          9         10         11         12
     1  Zn   0.001978   0.001912   0.049935   0.006822   0.009472   0.009703
     2  C   -0.001711  -0.001755  -0.011406   0.000630   0.000130   0.000123
     3  C    0.001537   0.001586   0.000630  -0.000024  -0.000031  -0.000047
     4  H    0.000156  -0.000127   0.000130  -0.000031  -0.000027  -0.000014
     5  H   -0.000137   0.000156   0.000123  -0.000047  -0.000014  -0.000019
     6  H   -0.001688  -0.001752  -0.000036   0.000001   0.000001   0.000002
     7  H    0.004267   0.000210   0.000043  -0.000002  -0.000008  -0.000009
     8  H    0.000210   0.004385   0.000055  -0.000003  -0.000004  -0.000013
     9  C    0.000043   0.000055   0.597362  -0.021445   0.004340   0.004385
    10  C   -0.000002  -0.000003  -0.021445  -0.025433   0.001232   0.001206
    11  H   -0.000008  -0.000004   0.004340   0.001232  -0.016707   0.001384
    12  H   -0.000009  -0.000013   0.004385   0.001206   0.001384  -0.017061
    13  H    0.000000   0.000000  -0.009003   0.009630  -0.000509  -0.000483
    14  H    0.000000   0.000000  -0.001711   0.001537   0.000156  -0.000137
    15  H    0.000000  -0.000001  -0.001755   0.001586  -0.000127   0.000156
              13         14         15
     1  Zn  -0.001569   0.001978   0.001912
     2  C   -0.000036   0.000043   0.000055
     3  C    0.000001  -0.000002  -0.000003
     4  H    0.000001  -0.000008  -0.000004
     5  H    0.000002  -0.000009  -0.000013
     6  H    0.000000   0.000000   0.000000
     7  H    0.000000   0.000000   0.000000
     8  H    0.000000   0.000000  -0.000001
     9  C   -0.009003  -0.001711  -0.001755
    10  C    0.009630   0.001537   0.001586
    11  H   -0.000509   0.000156  -0.000127
    12  H   -0.000483  -0.000137   0.000156
    13  H    0.044341  -0.001688  -0.001752
    14  H   -0.001688   0.004267   0.000210
    15  H   -0.001752   0.000210   0.004385
 Mulliken charges and spin densities:
               1          2
     1  Zn   0.835574  -0.267985
     2  C   -0.365133   0.611647
     3  C   -0.283704  -0.024340
     4  H    0.160083  -0.000711
     5  H    0.160932  -0.000824
     6  H    0.161242   0.038936
     7  H    0.124643   0.004636
     8  H    0.124149   0.004650
     9  C   -0.365133   0.611647
    10  C   -0.283704  -0.024340
    11  H    0.160083  -0.000711
    12  H    0.160932  -0.000824
    13  H    0.161242   0.038936
    14  H    0.124643   0.004636
    15  H    0.124149   0.004650
 Sum of Mulliken charges =   1.00000   1.00000
 Mulliken charges and spin densities with hydrogens summed into heavy atoms:
               1          2
     1  Zn   0.835574  -0.267985
     2  C   -0.044117   0.610112
     3  C    0.126330   0.023881
     9  C   -0.044118   0.610112
    10  C    0.126330   0.023881
 Electronic spatial extent (au):  <R**2>=            936.9391
 Charge=              1.0000 electrons
 Dipole moment (field-independent basis, Debye):
    X=              0.0000    Y=              0.0000    Z=              0.1647  Tot=              0.1647
 Quadrupole moment (field-independent basis, Debye-Ang):
   XX=            -34.9331   YY=            -19.5179   ZZ=            -36.6877
   XY=              3.7625   XZ=              0.0000   YZ=              0.0000
 Traceless Quadrupole moment (field-independent basis, Debye-Ang):
   XX=             -4.5535   YY=             10.8617   ZZ=             -6.3081
   XY=              3.7625   XZ=              0.0000   YZ=              0.0000
 Octapole moment (field-independent basis, Debye-Ang**2):
  XXX=              0.0000  YYY=              0.0000  ZZZ=              3.7438  XYY=              0.0000
  XXY=              0.0000  XXZ=              0.4223  XZZ=              0.0000  YZZ=              0.0000
  YYZ=             -0.1179  XYZ=             -1.1089
 Hexadecapole moment (field-independent basis, Debye-Ang**3):
 XXXX=           -227.0553 YYYY=           -755.1181 ZZZZ=            -66.3105 XXXY=           -140.8169
 XXXZ=              0.0000 YYYX=           -107.8583 YYYZ=              0.0000 ZZZX=              0.0000
 ZZZY=              0.0000 XXYY=           -170.7977 XXZZ=            -46.7137 YYZZ=           -163.1003
 XXYZ=              0.0000 YYXZ=              0.0000 ZZXY=            -51.6937
 N-N= 3.207392817687D+02 E-N=-5.254907681709D+03  KE= 1.934851348620D+03
 Symmetry A    KE= 1.417737238168D+03
 Symmetry B    KE= 5.171141104516D+02
                          Isotropic Fermi Contact Couplings
        Atom                 a.u.       MegaHertz       Gauss      10(-4) cm-1
     1  Zn(67)            -1.84485    -516.99506    -184.47669    -172.45099
     2  C(13)              0.12263     137.86335      49.19307      45.98627
     3  C(13)             -0.01966     -22.09632      -7.88452      -7.37054
     4  H(1)              -0.00134      -5.97987      -2.13377      -1.99467
     5  H(1)              -0.00134      -5.98277      -2.13480      -1.99564
     6  H(1)               0.02105      94.10213      33.57798      31.38909
     7  H(1)               0.00231      10.32960       3.68586       3.44558
     8  H(1)               0.00233      10.41431       3.71609       3.47384
     9  C(13)              0.12263     137.86333      49.19306      45.98626
    10  C(13)             -0.01966     -22.09621      -7.88448      -7.37050
    11  H(1)              -0.00134      -5.97986      -2.13376      -1.99467
    12  H(1)              -0.00134      -5.98276      -2.13480      -1.99564
    13  H(1)               0.02105      94.10205      33.57795      31.38906
    14  H(1)               0.00231      10.32951       3.68583       3.44555
    15  H(1)               0.00233      10.41423       3.71606       3.47381
 --------------------------------------------------------
       Center         ----  Spin Dipole Couplings  ----
                      3XX-RR        3YY-RR        3ZZ-RR
 --------------------------------------------------------
     1   Atom       -0.976666      1.955610     -0.978944
     2   Atom       -0.329896      0.660106     -0.330210
     3   Atom       -0.010927      0.028069     -0.017141
     4   Atom       -0.032921     -0.008630      0.041551
     5   Atom        0.004042     -0.008611      0.004569
     6   Atom       -0.000389      0.006747     -0.006358
     7   Atom        0.010428     -0.003958     -0.006470
     8   Atom        0.003762     -0.003977      0.000215
     9   Atom       -0.329896      0.660106     -0.330210
    10   Atom       -0.010927      0.028069     -0.017141
    11   Atom       -0.032921     -0.008630      0.041551
    12   Atom        0.004042     -0.008611      0.004569
    13   Atom       -0.000389      0.006747     -0.006358
    14   Atom        0.010428     -0.003958     -0.006470
    15   Atom        0.003762     -0.003977      0.000215
 --------------------------------------------------------
                        XY            XZ            YZ
 --------------------------------------------------------
     1   Atom       -0.007017      0.000000      0.000000
     2   Atom       -0.060412     -0.000064      0.014431
     3   Atom        0.028248     -0.001567     -0.006711
     4   Atom       -0.006445     -0.027163      0.011877
     5   Atom       -0.011105      0.046102     -0.007686
     6   Atom        0.001337     -0.001499     -0.000331
     7   Atom        0.004538      0.004058      0.001752
     8   Atom        0.003261     -0.009207     -0.003600
     9   Atom       -0.060412      0.000064     -0.014431
    10   Atom        0.028248      0.001567      0.006711
    11   Atom       -0.006445      0.027163     -0.011877
    12   Atom       -0.011105     -0.046102      0.007686
    13   Atom        0.001337      0.001499      0.000331
    14   Atom        0.004538     -0.004058     -0.001752
    15   Atom        0.003261      0.009207      0.003600
 --------------------------------------------------------


 ---------------------------------------------------------------------------------
              Anisotropic Spin Dipole Couplings in Principal Axis System
 ---------------------------------------------------------------------------------

       Atom             a.u.   MegaHertz   Gauss  10(-4) cm-1        Axes

              Baa    -0.9789   -32.746   -11.685   -10.923  0.0000  0.0000  1.0000
     1 Zn(67) Bbb    -0.9767   -32.671   -11.658   -10.898  1.0000  0.0024  0.0000
              Bcc     1.9556    65.417    23.342    21.821 -0.0024  1.0000  0.0000
 
              Baa    -0.3338   -44.788   -15.982   -14.940  0.9698  0.0624 -0.2357
     2 C(13)  Bbb    -0.3302   -44.313   -15.812   -14.781  0.2361  0.0002  0.9717
              Bcc     0.6640    89.101    31.793    29.721 -0.0607  0.9981  0.0145
 
              Baa    -0.0261    -3.504    -1.250    -1.169  0.8576 -0.4723 -0.2035
     3 C(13)  Bbb    -0.0175    -2.350    -0.839    -0.784  0.2309  0.0001  0.9730
              Bcc     0.0436     5.854     2.089     1.953  0.4595  0.8814 -0.1092
 
              Baa    -0.0420   -22.391    -7.990    -7.469  0.9513  0.0776  0.2984
     4 H(1)   Bbb    -0.0113    -6.027    -2.151    -2.010 -0.0093  0.9746 -0.2238
              Bcc     0.0533    28.418    10.140     9.479 -0.3081  0.2101  0.9278
 
              Baa    -0.0420   -22.403    -7.994    -7.473  0.7148  0.0778 -0.6950
     5 H(1)   Bbb    -0.0113    -6.015    -2.146    -2.006  0.0924  0.9746  0.2041
              Bcc     0.0533    28.418    10.140     9.479  0.6932 -0.2101  0.6895
 
              Baa    -0.0067    -3.582    -1.278    -1.195  0.2304  0.0010  0.9731
     6 H(1)   Bbb    -0.0003    -0.162    -0.058    -0.054  0.9551 -0.1918 -0.2260
              Bcc     0.0070     3.744     1.336     1.249  0.1864  0.9814 -0.0452
 
              Baa    -0.0076    -4.054    -1.446    -1.352 -0.1438 -0.2780  0.9497
     7 H(1)   Bbb    -0.0051    -2.745    -0.979    -0.916 -0.3253  0.9197  0.2200
              Bcc     0.0127     6.798     2.426     2.268  0.9346  0.2773  0.2227
 
              Baa    -0.0076    -4.051    -1.445    -1.351  0.5551  0.2793  0.7835
     8 H(1)   Bbb    -0.0052    -2.751    -0.982    -0.918 -0.3897  0.9195 -0.0517
              Bcc     0.0127     6.802     2.427     2.269  0.7349  0.2766 -0.6193
 
              Baa    -0.3338   -44.788   -15.982   -14.940  0.9698  0.0624  0.2357
     9 C(13)  Bbb    -0.3302   -44.313   -15.812   -14.781 -0.2361 -0.0002  0.9717
              Bcc     0.6640    89.101    31.793    29.721 -0.0607  0.9981 -0.0145
 
              Baa    -0.0261    -3.504    -1.250    -1.169  0.8576 -0.4723  0.2035
    10 C(13)  Bbb    -0.0175    -2.350    -0.839    -0.784 -0.2309 -0.0001  0.9730
              Bcc     0.0436     5.854     2.089     1.953  0.4595  0.8814  0.1092
 
              Baa    -0.0420   -22.391    -7.990    -7.469  0.9513  0.0776 -0.2984
    11 H(1)   Bbb    -0.0113    -6.027    -2.151    -2.010 -0.0093  0.9746  0.2238
              Bcc     0.0533    28.418    10.140     9.479  0.3081 -0.2101  0.9278
 
              Baa    -0.0420   -22.403    -7.994    -7.473  0.7148  0.0778  0.6950
    12 H(1)   Bbb    -0.0113    -6.015    -2.146    -2.006  0.0924  0.9746 -0.2041
              Bcc     0.0533    28.418    10.140     9.479  0.6932 -0.2101 -0.6895
 
              Baa    -0.0067    -3.582    -1.278    -1.195 -0.2304 -0.0010  0.9731
    13 H(1)   Bbb    -0.0003    -0.162    -0.058    -0.054  0.9551 -0.1918  0.2260
              Bcc     0.0070     3.744     1.336     1.249  0.1864  0.9814  0.0452
 
              Baa    -0.0076    -4.054    -1.446    -1.352  0.1438  0.2780  0.9497
    14 H(1)   Bbb    -0.0051    -2.745    -0.979    -0.916 -0.3253  0.9197 -0.2200
              Bcc     0.0127     6.798     2.426     2.268  0.9346  0.2773 -0.2227
 
              Baa    -0.0076    -4.051    -1.445    -1.351 -0.5551 -0.2793  0.7835
    15 H(1)   Bbb    -0.0052    -2.751    -0.982    -0.918 -0.3897  0.9195  0.0517
              Bcc     0.0127     6.802     2.427     2.269  0.7349  0.2766  0.6193
 

 ---------------------------------------------------------------------------------

 Range of M.O.s used for correlation:     1   328
 NBasis=   328 NAE=    32 NBE=    31 NFC=     0 NFV=     0
 NROrb=    328 NOA=    32 NOB=    31 NVA=   296 NVB=   297

 **** Warning!!: The largest alpha MO coefficient is  0.11098205D+02


 **** Warning!!: The largest beta MO coefficient is  0.11365609D+02

 Keep R1 and R2 ints in memory in symmetry-blocked form, NReq=2183654072.
 Orbital symmetries:
 Alpha Orbitals:
       Occupied  (A) (A) (B) (A) (B) (?A) (?A) (?A) (?A) (A) (B)
                 (B) (A) (A) (B) (A) (B) (A) (B) (A) (B) (A) (A)
                 (B) (A) (B) (B) (A) (A) (B) (A) (B)
       Virtual   (A) (B) (A) (B) (A) (A) (A) (B) (B) (A) (B) (B)
                 (A) (A) (B) (A) (B) (A) (B) (A) (B) (B) (A) (A)
                 (B) (B) (A) (B) (A) (B) (A) (A) (B) (B) (B) (A)
                 (B) (A) (A) (B) (A) (B) (A) (A) (B) (A) (B) (A)
                 (B) (B) (A) (A) (B) (A) (B) (A) (B) (B) (A) (B)
                 (A) (B) (A) (B) (B) (A) (A) (B) (A) (B) (A) (B)
                 (B) (A) (A) (A) (B) (B) (B) (A) (B) (A) (A) (A)
                 (A) (B) (B) (A) (B) (A) (A) (B) (B) (A) (A) (B)
                 (B) (A) (A) (B) (B) (A) (B) (A) (B) (B) (A) (B)
                 (A) (A) (B) (A) (B) (A) (B) (A) (B) (B) (A) (A)
                 (B) (B) (A) (A) (B) (A) (B) (A) (A) (B) (B) (B)
                 (A) (B) (A) (B) (A) (A) (A) (B) (B) (B) (A) (A)
                 (A) (B) (B) (B) (A) (B) (A) (A) (B) (A) (B) (B)
                 (A) (B) (A) (A) (B) (A) (B) (B) (A) (A) (B) (A)
                 (A) (B) (A) (B) (A) (B) (A) (B) (B) (A) (B) (A)
                 (B) (B) (A) (A) (B) (A) (B) (B) (B) (A) (A) (A)
                 (B) (A) (B) (A) (A) (B) (B) (B) (A) (A) (B) (A)
                 (B) (A) (B) (A) (B) (A) (A) (B) (B) (A) (B) (A)
                 (A) (B) (A) (B) (B) (A) (A) (B) (A) (B) (B) (A)
                 (A) (B) (B) (A) (B) (A) (B) (A) (A) (B) (B) (A)
                 (A) (B) (B) (B) (A) (A) (B) (A) (A) (B) (B) (A)
                 (B) (B) (A) (B) (A) (A) (B) (B) (A) (A) (B) (A)
                 (B) (B) (A) (A) (B) (B) (A) (B) (A) (B) (A) (A)
                 (A) (B) (B) (A) (A) (B) (B) (A) (A) (B) (B) (A)
                 (B) (B) (A) (A) (B) (A) (B) (A)
 Beta  Orbitals:
       Occupied  (A) (A) (B) (A) (B) (A) (B) (?A) (?A) (A) (B)
                 (A) (B) (A) (B) (A) (B) (B) (A) (A) (B) (A) (A)
                 (B) (A) (B) (B) (A) (A) (B) (A)
       Virtual   (B) (B) (A) (A) (B) (A) (A) (B) (A) (B) (B) (B)
                 (A) (A) (A) (B) (A) (B) (A) (B) (A) (B) (B) (A)
                 (B) (A) (B) (A) (B) (A) (B) (A) (A) (B) (B) (A)
                 (B) (B) (A) (B) (A) (A) (B) (A) (A) (B) (A) (B)
                 (A) (B) (B) (A) (A) (A) (B) (B) (A) (B) (A) (B)
                 (B) (A) (B) (A) (B) (B) (A) (A) (B) (A) (B) (B)
                 (A) (B) (A) (A) (A) (B) (B) (A) (B) (B) (A) (A)
                 (A) (A) (B) (B) (A) (B) (A) (A) (B) (B) (A) (A)
                 (B) (B) (A) (A) (B) (B) (A) (B) (A) (B) (B) (A)
                 (B) (A) (A) (B) (A) (B) (A) (B) (A) (B) (B) (A)
                 (A) (B) (B) (A) (A) (B) (B) (A) (A) (A) (B) (B)
                 (B) (A) (B) (A) (B) (A) (A) (A) (B) (B) (B) (A)
                 (A) (B) (A) (B) (B) (A) (B) (A) (A) (B) (A) (B)
                 (B) (A) (B) (A) (A) (B) (A) (B) (B) (A) (A) (B)
                 (A) (A) (B) (A) (B) (A) (B) (A) (B) (B) (A) (B)
                 (A) (B) (B) (A) (A) (B) (A) (B) (B) (B) (A) (A)
                 (A) (B) (A) (B) (A) (A) (B) (B) (B) (A) (A) (B)
                 (A) (B) (A) (B) (A) (B) (A) (A) (B) (B) (A) (B)
                 (A) (A) (B) (A) (B) (B) (A) (A) (B) (A) (B) (B)
                 (A) (A) (B) (B) (A) (B) (A) (B) (A) (A) (B) (B)
                 (A) (A) (B) (B) (B) (A) (A) (B) (A) (A) (B) (B)
                 (A) (B) (B) (A) (B) (A) (A) (B) (B) (A) (A) (B)
                 (A) (B) (B) (A) (A) (B) (B) (A) (B) (A) (B) (A)
                 (A) (A) (B) (B) (A) (A) (B) (B) (A) (A) (B) (B)
                 (A) (B) (B) (A) (A) (B) (A) (B) (A)
    12 initial guesses have been made.
 Convergence on wavefunction:    0.001000000000000
 Iteration     1 Dimension    12 NMult     0 NNew     12
 CISAX will form    12 AO SS matrices at one time.
 Iteration     2 Dimension    24 NMult    12 NNew     12
 Iteration     3 Dimension    27 NMult    24 NNew      3
 Iteration     4 Dimension    30 NMult    27 NNew      3
 Iteration     5 Dimension    33 NMult    30 NNew      3
 Iteration     6 Dimension    36 NMult    33 NNew      3
 ***********************************************************************
 Stability analysis using <AA,BB:AA,BB> singles matrix:
 ***********************************************************************

 Eigenvectors of the stability matrix:
 
 Eigenvector   1:  2.028-B    Eigenvalue= 0.0213900  <S**2>=0.778
     32A -> 33A        0.12421
     25B -> 32B        0.12109
     31B -> 32B        0.94638
 SavETr:  write IOETrn=   770 NScale= 10 NData=  16 NLR=1 NState=    1 LETran=      28.
 The wavefunction is stable under the perturbations considered.
 The wavefunction is already stable.

 **********************************************************************

            Population analysis using the SCF density.

 **********************************************************************

 Orbital symmetries:
 Alpha Orbitals:
       Occupied  (A) (A) (B) (A) (B) (?A) (?A) (?A) (?A) (A) (B)
                 (B) (A) (A) (B) (A) (B) (A) (B) (A) (B) (A) (A)
                 (B) (A) (B) (B) (A) (A) (B) (A) (B)
       Virtual   (A) (B) (A) (B) (A) (A) (A) (B) (B) (A) (B) (B)
                 (A) (A) (B) (A) (B) (A) (B) (A) (B) (B) (A) (A)
                 (B) (B) (A) (B) (A) (B) (A) (A) (B) (B) (B) (A)
                 (B) (A) (A) (B) (A) (B) (A) (A) (B) (A) (B) (A)
                 (B) (B) (A) (A) (B) (A) (B) (A) (B) (B) (A) (B)
                 (A) (B) (A) (B) (B) (A) (A) (B) (A) (B) (A) (B)
                 (B) (A) (A) (A) (B) (B) (B) (A) (B) (A) (A) (A)
                 (A) (B) (B) (A) (B) (A) (A) (B) (B) (A) (A) (B)
                 (B) (A) (A) (B) (B) (A) (B) (A) (B) (B) (A) (B)
                 (A) (A) (B) (A) (B) (A) (B) (A) (B) (B) (A) (A)
                 (B) (B) (A) (A) (B) (A) (B) (A) (A) (B) (B) (B)
                 (A) (B) (A) (B) (A) (A) (A) (B) (B) (B) (A) (A)
                 (A) (B) (B) (B) (A) (B) (A) (A) (B) (A) (B) (B)
                 (A) (B) (A) (A) (B) (A) (B) (B) (A) (A) (B) (A)
                 (A) (B) (A) (B) (A) (B) (A) (B) (B) (A) (B) (A)
                 (B) (B) (A) (A) (B) (A) (B) (B) (B) (A) (A) (A)
                 (B) (A) (B) (A) (A) (B) (B) (B) (A) (A) (B) (A)
                 (B) (A) (B) (A) (B) (A) (A) (B) (B) (A) (B) (A)
                 (A) (B) (A) (B) (B) (A) (A) (B) (A) (B) (B) (A)
                 (A) (B) (B) (A) (B) (A) (B) (A) (A) (B) (B) (A)
                 (A) (B) (B) (B) (A) (A) (B) (A) (A) (B) (B) (A)
                 (B) (B) (A) (B) (A) (A) (B) (B) (A) (A) (B) (A)
                 (B) (B) (A) (A) (B) (B) (A) (B) (A) (B) (A) (A)
                 (A) (B) (B) (A) (A) (B) (B) (A) (A) (B) (B) (A)
                 (B) (B) (A) (A) (B) (A) (B) (A)
 Beta  Orbitals:
       Occupied  (A) (A) (B) (A) (B) (A) (B) (?A) (?A) (A) (B)
                 (A) (B) (A) (B) (A) (B) (B) (A) (A) (B) (A) (A)
                 (B) (A) (B) (B) (A) (A) (B) (A)
       Virtual   (B) (B) (A) (A) (B) (A) (A) (B) (A) (B) (B) (B)
                 (A) (A) (A) (B) (A) (B) (A) (B) (A) (B) (B) (A)
                 (B) (A) (B) (A) (B) (A) (B) (A) (A) (B) (B) (A)
                 (B) (B) (A) (B) (A) (A) (B) (A) (A) (B) (A) (B)
                 (A) (B) (B) (A) (A) (A) (B) (B) (A) (B) (A) (B)
                 (B) (A) (B) (A) (B) (B) (A) (A) (B) (A) (B) (B)
                 (A) (B) (A) (A) (A) (B) (B) (A) (B) (B) (A) (A)
                 (A) (A) (B) (B) (A) (B) (A) (A) (B) (B) (A) (A)
                 (B) (B) (A) (A) (B) (B) (A) (B) (A) (B) (B) (A)
                 (B) (A) (A) (B) (A) (B) (A) (B) (A) (B) (B) (A)
                 (A) (B) (B) (A) (A) (B) (B) (A) (A) (A) (B) (B)
                 (B) (A) (B) (A) (B) (A) (A) (A) (B) (B) (B) (A)
                 (A) (B) (A) (B) (B) (A) (B) (A) (A) (B) (A) (B)
                 (B) (A) (B) (A) (A) (B) (A) (B) (B) (A) (A) (B)
                 (A) (A) (B) (A) (B) (A) (B) (A) (B) (B) (A) (B)
                 (A) (B) (B) (A) (A) (B) (A) (B) (B) (B) (A) (A)
                 (A) (B) (A) (B) (A) (A) (B) (B) (B) (A) (A) (B)
                 (A) (B) (A) (B) (A) (B) (A) (A) (B) (B) (A) (B)
                 (A) (A) (B) (A) (B) (B) (A) (A) (B) (A) (B) (B)
                 (A) (A) (B) (B) (A) (B) (A) (B) (A) (A) (B) (B)
                 (A) (A) (B) (B) (B) (A) (A) (B) (A) (A) (B) (B)
                 (A) (B) (B) (A) (B) (A) (A) (B) (B) (A) (A) (B)
                 (A) (B) (B) (A) (A) (B) (B) (A) (B) (A) (B) (A)
                 (A) (A) (B) (B) (A) (A) (B) (B) (A) (A) (B) (B)
                 (A) (B) (B) (A) (A) (B) (A) (B) (A)
 Unable to determine electronic state:  an orbital has unidentified symmetry.
 Alpha  occ. eigenvalues -- -353.53853 -44.59868 -39.16334 -39.16325 -39.16149
 Alpha  occ. eigenvalues --  -11.44362 -11.44362 -11.38914 -11.38914  -5.87567
 Alpha  occ. eigenvalues --   -4.08531  -4.07729  -4.07713  -1.22091  -1.20994
 Alpha  occ. eigenvalues --   -1.06380  -1.02878  -1.02649  -1.02338  -1.02216
 Alpha  occ. eigenvalues --   -1.02165  -0.98661  -0.78934  -0.78313  -0.76484
 Alpha  occ. eigenvalues --   -0.76231  -0.69929  -0.69837  -0.66919  -0.66720
 Alpha  occ. eigenvalues --   -0.64121  -0.61686
 Alpha virt. eigenvalues --   -0.08683  -0.08187  -0.07985  -0.00666   0.03577
 Alpha virt. eigenvalues --    0.03957   0.05481   0.05484   0.06150   0.06585
 Alpha virt. eigenvalues --    0.07265   0.08990   0.11115   0.11559   0.13218
 Alpha virt. eigenvalues --    0.15527   0.16776   0.18212   0.21244   0.23275
 Alpha virt. eigenvalues --    0.24149   0.24949   0.25058   0.25757   0.25929
 Alpha virt. eigenvalues --    0.29928   0.31688   0.38502   0.40997   0.42856
 Alpha virt. eigenvalues --    0.43210   0.43740   0.44609   0.45151   0.45449
 Alpha virt. eigenvalues --    0.46659   0.48252   0.49745   0.50727   0.50928
 Alpha virt. eigenvalues --    0.51720   0.53533   0.53843   0.54967   0.56696
 Alpha virt. eigenvalues --    0.58464   0.58924   0.63285   0.63757   0.70303
 Alpha virt. eigenvalues --    0.72313   0.74239   0.78122   0.78664   0.80185
 Alpha virt. eigenvalues --    0.82378   0.85270   0.88389   0.88756   0.89079
 Alpha virt. eigenvalues --    0.93136   0.94438   0.97348   0.99021   1.01005
 Alpha virt. eigenvalues --    1.01312   1.06519   1.06743   1.08616   1.09776
 Alpha virt. eigenvalues --    1.11475   1.11617   1.12096   1.13015   1.14047
 Alpha virt. eigenvalues --    1.16695   1.19042   1.19393   1.19863   1.19913
 Alpha virt. eigenvalues --    1.21554   1.22614   1.26360   1.28068   1.31472
 Alpha virt. eigenvalues --    1.31806   1.33577   1.34322   1.35594   1.36281
 Alpha virt. eigenvalues --    1.39993   1.40172   1.41348   1.42855   1.45737
 Alpha virt. eigenvalues --    1.47539   1.48016   1.54136   1.55423   1.57141
 Alpha virt. eigenvalues --    1.59488   1.63465   1.65393   1.73434   1.75267
 Alpha virt. eigenvalues --    2.31485   2.33722   2.35478   2.37850   2.42741
 Alpha virt. eigenvalues --    2.47315   2.48513   2.48944   2.51136   2.53031
 Alpha virt. eigenvalues --    2.56786   2.57902   2.60172   2.61247   2.67284
 Alpha virt. eigenvalues --    2.68052   2.69764   2.72878   2.73866   2.74502
 Alpha virt. eigenvalues --    2.80445   2.81597   2.84401   2.86982   2.87890
 Alpha virt. eigenvalues --    2.91008   2.91213   2.92484   2.92991   2.94072
 Alpha virt. eigenvalues --    2.96586   2.97002   2.97704   3.01202   3.02328
 Alpha virt. eigenvalues --    3.04002   3.07682   3.10063   3.11507   3.12912
 Alpha virt. eigenvalues --    3.12949   3.13458   3.15160   3.17301   3.20282
 Alpha virt. eigenvalues --    3.22157   3.22942   3.23146   3.25082   3.26398
 Alpha virt. eigenvalues --    3.27328   3.29400   3.32408   3.32434   3.35648
 Alpha virt. eigenvalues --    3.38021   3.38533   3.40615   3.42872   3.44844
 Alpha virt. eigenvalues --    3.48719   3.48847   3.50255   3.57367   3.57939
 Alpha virt. eigenvalues --    3.59468   3.59781   3.60550   3.62384   3.63545
 Alpha virt. eigenvalues --    3.64927   3.67593   3.69546   3.70218   3.79997
 Alpha virt. eigenvalues --    3.80064   3.81720   3.82225   3.88778   3.90991
 Alpha virt. eigenvalues --    3.92500   3.92537   3.93343   3.95584   3.96333
 Alpha virt. eigenvalues --    3.98106   3.99894   4.02395   4.03112   4.03782
 Alpha virt. eigenvalues --    4.04136   4.10466   4.13302   4.14469   4.15542
 Alpha virt. eigenvalues --    4.15996   4.18963   4.19021   4.21588   4.23086
 Alpha virt. eigenvalues --    4.23218   4.23998   4.25703   4.26819   4.27449
 Alpha virt. eigenvalues --    4.27684   4.29753   4.30056   4.34848   4.39353
 Alpha virt. eigenvalues --    4.40358   4.41651   4.41734   4.42322   4.46032
 Alpha virt. eigenvalues --    4.48685   4.49524   4.50176   4.51245   4.57668
 Alpha virt. eigenvalues --    4.59143   4.64737   4.74447   4.77201   4.77275
 Alpha virt. eigenvalues --    4.83269   4.84048   4.84242   4.89888   4.97048
 Alpha virt. eigenvalues --    4.98187   4.98657   4.98724   4.99647   5.03852
 Alpha virt. eigenvalues --    5.04722   5.04822   5.06635   5.12364   5.13068
 Alpha virt. eigenvalues --    5.13515   5.24136   5.26807   5.34209   5.35015
 Alpha virt. eigenvalues --    5.37083   5.39568   5.40592   5.46535   5.47624
 Alpha virt. eigenvalues --    5.52901   5.53002   5.53112   5.53468   5.55646
 Alpha virt. eigenvalues --    5.57110   5.60060   5.61169   5.65097   5.65982
 Alpha virt. eigenvalues --    6.09854   6.10959   6.12296   6.12354   6.13230
 Alpha virt. eigenvalues --    6.14678  10.68884  10.71321  10.96542  11.00211
 Alpha virt. eigenvalues --   11.44537  12.00461  12.10197  13.60317  13.63133
 Alpha virt. eigenvalues --   16.00610  16.00625  16.02452  16.02852  16.08782
 Alpha virt. eigenvalues --   16.09201  16.22534  16.69148  16.69148  16.69370
 Alpha virt. eigenvalues --   16.69371  16.69581  16.69612  16.70104  16.70112
 Alpha virt. eigenvalues --   16.71105
  Beta  occ. eigenvalues -- -353.53864 -44.59930 -39.16303 -39.16294 -39.15910
  Beta  occ. eigenvalues --  -11.42905 -11.42904 -11.38972 -11.38972  -5.87702
  Beta  occ. eigenvalues --   -4.07936  -4.07924  -4.07524  -1.18484  -1.17757
  Beta  occ. eigenvalues --   -1.03886  -1.02562  -1.02366  -1.02360  -1.02230
  Beta  occ. eigenvalues --   -0.99169  -0.97043  -0.78012  -0.77455  -0.72672
  Beta  occ. eigenvalues --   -0.72402  -0.68824  -0.68724  -0.66462  -0.66242
  Beta  occ. eigenvalues --   -0.52818
  Beta virt. eigenvalues --   -0.22924  -0.09274  -0.09152  -0.06592  -0.00431
  Beta virt. eigenvalues --    0.04021   0.04310   0.05470   0.05824   0.06336
  Beta virt. eigenvalues --    0.07422   0.08989   0.09487   0.11161   0.11581
  Beta virt. eigenvalues --    0.13313   0.15200   0.17149   0.19199   0.22146
  Beta virt. eigenvalues --    0.23453   0.24335   0.25059   0.25435   0.26437
  Beta virt. eigenvalues --    0.26747   0.31229   0.34344   0.39600   0.41059
  Beta virt. eigenvalues --    0.43933   0.44218   0.44919   0.45646   0.46059
  Beta virt. eigenvalues --    0.47026   0.47475   0.49154   0.50661   0.51092
  Beta virt. eigenvalues --    0.51148   0.52033   0.53736   0.54292   0.55677
  Beta virt. eigenvalues --    0.58196   0.58543   0.59770   0.64154   0.64469
  Beta virt. eigenvalues --    0.70593   0.72782   0.74986   0.78764   0.79121
  Beta virt. eigenvalues --    0.80263   0.82564   0.86147   0.88984   0.89153
  Beta virt. eigenvalues --    0.90686   0.93461   0.94715   0.98068   0.99088
  Beta virt. eigenvalues --    1.01170   1.01492   1.06917   1.07397   1.09189
  Beta virt. eigenvalues --    1.10187   1.11934   1.12202   1.12602   1.13752
  Beta virt. eigenvalues --    1.14852   1.18057   1.19427   1.19821   1.20083
  Beta virt. eigenvalues --    1.20149   1.21899   1.23250   1.26780   1.29224
  Beta virt. eigenvalues --    1.32382   1.33802   1.34238   1.34945   1.35966
  Beta virt. eigenvalues --    1.37153   1.40633   1.40946   1.41601   1.43182
  Beta virt. eigenvalues --    1.46603   1.48174   1.48566   1.54914   1.55895
  Beta virt. eigenvalues --    1.58170   1.60082   1.63812   1.65821   1.74090
  Beta virt. eigenvalues --    1.76076   2.31740   2.33991   2.36365   2.38759
  Beta virt. eigenvalues --    2.43390   2.47852   2.49117   2.49502   2.51487
  Beta virt. eigenvalues --    2.53387   2.57053   2.60242   2.62238   2.63353
  Beta virt. eigenvalues --    2.67794   2.68606   2.70777   2.73777   2.75430
  Beta virt. eigenvalues --    2.75581   2.81511   2.81912   2.84473   2.88852
  Beta virt. eigenvalues --    2.89213   2.91495   2.92753   2.92853   2.93267
  Beta virt. eigenvalues --    2.94591   2.96800   2.97543   2.98162   3.01787
  Beta virt. eigenvalues --    3.03009   3.04625   3.08487   3.10368   3.11863
  Beta virt. eigenvalues --    3.13270   3.13714   3.13753   3.15923   3.18181
  Beta virt. eigenvalues --    3.21377   3.22596   3.23111   3.23374   3.25275
  Beta virt. eigenvalues --    3.26779   3.28786   3.31461   3.33624   3.34154
  Beta virt. eigenvalues --    3.37451   3.39217   3.39527   3.41861   3.43987
  Beta virt. eigenvalues --    3.45554   3.48883   3.49001   3.50685   3.57604
  Beta virt. eigenvalues --    3.58076   3.59613   3.60088   3.60788   3.62614
  Beta virt. eigenvalues --    3.64006   3.65298   3.68034   3.69954   3.71046
  Beta virt. eigenvalues --    3.80228   3.80801   3.82088   3.83098   3.89342
  Beta virt. eigenvalues --    3.91148   3.92710   3.92928   3.93697   3.95911
  Beta virt. eigenvalues --    3.96670   3.98829   4.00243   4.02621   4.03394
  Beta virt. eigenvalues --    4.04117   4.04606   4.10841   4.13881   4.14676
  Beta virt. eigenvalues --    4.15888   4.16131   4.18868   4.18908   4.22277
  Beta virt. eigenvalues --    4.23524   4.23592   4.24222   4.26134   4.26889
  Beta virt. eigenvalues --    4.27491   4.27728   4.29872   4.30270   4.35355
  Beta virt. eigenvalues --    4.39486   4.40490   4.41718   4.41804   4.42374
  Beta virt. eigenvalues --    4.46127   4.49032   4.49791   4.50276   4.51400
  Beta virt. eigenvalues --    4.58267   4.59723   4.65106   4.74837   4.77166
  Beta virt. eigenvalues --    4.77294   4.83649   4.84441   4.84640   4.90560
  Beta virt. eigenvalues --    4.97580   4.98365   4.98842   4.98913   4.99981
  Beta virt. eigenvalues --    5.04203   5.05009   5.05111   5.07037   5.12714
  Beta virt. eigenvalues --    5.13389   5.13769   5.24491   5.27102   5.34634
  Beta virt. eigenvalues --    5.35443   5.37384   5.39750   5.41103   5.46746
  Beta virt. eigenvalues --    5.47790   5.53055   5.53158   5.53402   5.53838
  Beta virt. eigenvalues --    5.55802   5.57318   5.60298   5.61403   5.65537
  Beta virt. eigenvalues --    5.66462   6.10280   6.11074   6.12473   6.12486
  Beta virt. eigenvalues --    6.13468   6.15183  10.68827  10.71268  10.96623
  Beta virt. eigenvalues --   11.00298  11.44854  12.01375  12.11121  13.60332
  Beta virt. eigenvalues --   13.63148  16.00428  16.00444  16.02501  16.02902
  Beta virt. eigenvalues --   16.09068  16.09489  16.22926  16.69124  16.69124
  Beta virt. eigenvalues --   16.69369  16.69370  16.69610  16.69641  16.70158
  Beta virt. eigenvalues --   16.70165  16.71171
          Condensed to atoms (all electrons):
               1          2          3          4          5          6
     1  Zn  28.819287   0.220948  -0.027006  -0.011199  -0.010617   0.005787
     2  C    0.220948   5.088183   0.321287   0.414419   0.414509  -0.022148
     3  C   -0.027006   0.321287   4.809517  -0.031477  -0.031518   0.407047
     4  H   -0.011199   0.414419  -0.031477   0.501975  -0.029924  -0.004520
     5  H   -0.010617   0.414509  -0.031518  -0.029924   0.500678  -0.004577
     6  H    0.005787  -0.022148   0.407047  -0.004520  -0.004577   0.506037
     7  H   -0.002662  -0.031720   0.418046  -0.004070   0.004886  -0.024496
     8  H   -0.002681  -0.032310   0.417869   0.004959  -0.004108  -0.024366
     9  C    0.220948  -0.007129  -0.000122  -0.000331  -0.000398  -0.000003
    10  C   -0.027006  -0.000122   0.000004   0.000025   0.000030  -0.000001
    11  H   -0.011199  -0.000331   0.000025   0.000008   0.000034  -0.000001
    12  H   -0.010618  -0.000398   0.000030   0.000034   0.000024  -0.000001
    13  H    0.005787  -0.000003  -0.000001  -0.000001  -0.000001   0.000000
    14  H   -0.002662  -0.000028  -0.000001   0.000021   0.000010   0.000000
    15  H   -0.002681  -0.000024   0.000003  -0.000002   0.000041   0.000000
               7          8          9         10         11         12
     1  Zn  -0.002662  -0.002681   0.220948  -0.027006  -0.011199  -0.010618
     2  C   -0.031720  -0.032310  -0.007129  -0.000122  -0.000331  -0.000398
     3  C    0.418046   0.417869  -0.000122   0.000004   0.000025   0.000030
     4  H   -0.004070   0.004959  -0.000331   0.000025   0.000008   0.000034
     5  H    0.004886  -0.004108  -0.000398   0.000030   0.000034   0.000024
     6  H   -0.024496  -0.024366  -0.000003  -0.000001  -0.000001  -0.000001
     7  H    0.547815  -0.032444  -0.000028  -0.000001   0.000021   0.000010
     8  H   -0.032444   0.548915  -0.000024   0.000003  -0.000002   0.000041
     9  C   -0.000028  -0.000024   5.088183   0.321287   0.414419   0.414509
    10  C   -0.000001   0.000003   0.321287   4.809517  -0.031477  -0.031518
    11  H    0.000021  -0.000002   0.414419  -0.031477   0.501975  -0.029924
    12  H    0.000010   0.000041   0.414509  -0.031518  -0.029924   0.500678
    13  H    0.000000   0.000000  -0.022148   0.407047  -0.004520  -0.004577
    14  H    0.000000   0.000001  -0.031720   0.418046  -0.004070   0.004886
    15  H    0.000001  -0.000002  -0.032310   0.417869   0.004959  -0.004108
              13         14         15
     1  Zn   0.005787  -0.002662  -0.002681
     2  C   -0.000003  -0.000028  -0.000024
     3  C   -0.000001  -0.000001   0.000003
     4  H   -0.000001   0.000021  -0.000002
     5  H   -0.000001   0.000010   0.000041
     6  H    0.000000   0.000000   0.000000
     7  H    0.000000   0.000000   0.000001
     8  H    0.000000   0.000001  -0.000002
     9  C   -0.022148  -0.031720  -0.032310
    10  C    0.407047   0.418046   0.417869
    11  H   -0.004520  -0.004070   0.004959
    12  H   -0.004577   0.004886  -0.004108
    13  H    0.506037  -0.024496  -0.024366
    14  H   -0.024496   0.547815  -0.032444
    15  H   -0.024366  -0.032444   0.548916
          Atomic-Atomic Spin Densities.
               1          2          3          4          5          6
     1  Zn  -0.424492   0.049935   0.006822   0.009472   0.009703  -0.001569
     2  C    0.049935   0.597362  -0.021445   0.004340   0.004385  -0.009003
     3  C    0.006822  -0.021445  -0.025433   0.001232   0.001206   0.009630
     4  H    0.009472   0.004340   0.001232  -0.016707   0.001384  -0.000509
     5  H    0.009703   0.004385   0.001206   0.001384  -0.017061  -0.000483
     6  H   -0.001569  -0.009003   0.009630  -0.000509  -0.000483   0.044341
     7  H    0.001978  -0.001711   0.001537   0.000156  -0.000137  -0.001688
     8  H    0.001912  -0.001755   0.001586  -0.000127   0.000156  -0.001752
     9  C    0.049935  -0.011406   0.000630   0.000130   0.000123  -0.000036
    10  C    0.006822   0.000630  -0.000024  -0.000031  -0.000047   0.000001
    11  H    0.009472   0.000130  -0.000031  -0.000027  -0.000014   0.000001
    12  H    0.009703   0.000123  -0.000047  -0.000014  -0.000019   0.000002
    13  H   -0.001569  -0.000036   0.000001   0.000001   0.000002   0.000000
    14  H    0.001978   0.000043  -0.000002  -0.000008  -0.000009   0.000000
    15  H    0.001912   0.000055  -0.000003  -0.000004  -0.000013   0.000000
               7          8          9         10         11         12
     1  Zn   0.001978   0.001912   0.049935   0.006822   0.009472   0.009703
     2  C   -0.001711  -0.001755  -0.011406   0.000630   0.000130   0.000123
     3  C    0.001537   0.001586   0.000630  -0.000024  -0.000031  -0.000047
     4  H    0.000156  -0.000127   0.000130  -0.000031  -0.000027  -0.000014
     5  H   -0.000137   0.000156   0.000123  -0.000047  -0.000014  -0.000019
     6  H   -0.001688  -0.001752  -0.000036   0.000001   0.000001   0.000002
     7  H    0.004267   0.000210   0.000043  -0.000002  -0.000008  -0.000009
     8  H    0.000210   0.004385   0.000055  -0.000003  -0.000004  -0.000013
     9  C    0.000043   0.000055   0.597362  -0.021445   0.004340   0.004385
    10  C   -0.000002  -0.000003  -0.021445  -0.025433   0.001232   0.001206
    11  H   -0.000008  -0.000004   0.004340   0.001232  -0.016707   0.001384
    12  H   -0.000009  -0.000013   0.004385   0.001206   0.001384  -0.017061
    13  H    0.000000   0.000000  -0.009003   0.009630  -0.000509  -0.000483
    14  H    0.000000   0.000000  -0.001711   0.001537   0.000156  -0.000137
    15  H    0.000000  -0.000001  -0.001755   0.001586  -0.000127   0.000156
              13         14         15
     1  Zn  -0.001569   0.001978   0.001912
     2  C   -0.000036   0.000043   0.000055
     3  C    0.000001  -0.000002  -0.000003
     4  H    0.000001  -0.000008  -0.000004
     5  H    0.000002  -0.000009  -0.000013
     6  H    0.000000   0.000000   0.000000
     7  H    0.000000   0.000000   0.000000
     8  H    0.000000   0.000000  -0.000001
     9  C   -0.009003  -0.001711  -0.001755
    10  C    0.009630   0.001537   0.001586
    11  H   -0.000509   0.000156  -0.000127
    12  H   -0.000483  -0.000137   0.000156
    13  H    0.044341  -0.001688  -0.001752
    14  H   -0.001688   0.004267   0.000210
    15  H   -0.001752   0.000210   0.004385
 Mulliken charges and spin densities:
               1          2
     1  Zn   0.835574  -0.267985
     2  C   -0.365133   0.611647
     3  C   -0.283704  -0.024340
     4  H    0.160083  -0.000711
     5  H    0.160932  -0.000824
     6  H    0.161242   0.038936
     7  H    0.124643   0.004636
     8  H    0.124149   0.004650
     9  C   -0.365133   0.611647
    10  C   -0.283704  -0.024340
    11  H    0.160083  -0.000711
    12  H    0.160932  -0.000824
    13  H    0.161242   0.038936
    14  H    0.124643   0.004636
    15  H    0.124149   0.004650
 Sum of Mulliken charges =   1.00000   1.00000
 Mulliken charges and spin densities with hydrogens summed into heavy atoms:
               1          2
     1  Zn   0.835574  -0.267985
     2  C   -0.044117   0.610112
     3  C    0.126330   0.023881
     9  C   -0.044118   0.610112
    10  C    0.126330   0.023881
 Electronic spatial extent (au):  <R**2>=            936.9391
 Charge=              1.0000 electrons
 Dipole moment (field-independent basis, Debye):
    X=              0.0000    Y=              0.0000    Z=              0.1647  Tot=              0.1647
 Quadrupole moment (field-independent basis, Debye-Ang):
   XX=            -34.9331   YY=            -19.5179   ZZ=            -36.6877
   XY=              3.7625   XZ=              0.0000   YZ=              0.0000
 Traceless Quadrupole moment (field-independent basis, Debye-Ang):
   XX=             -4.5535   YY=             10.8617   ZZ=             -6.3081
   XY=              3.7625   XZ=              0.0000   YZ=              0.0000
 Octapole moment (field-independent basis, Debye-Ang**2):
  XXX=              0.0000  YYY=              0.0000  ZZZ=              3.7438  XYY=              0.0000
  XXY=              0.0000  XXZ=              0.4223  XZZ=              0.0000  YZZ=              0.0000
  YYZ=             -0.1179  XYZ=             -1.1089
 Hexadecapole moment (field-independent basis, Debye-Ang**3):
 XXXX=           -227.0553 YYYY=           -755.1181 ZZZZ=            -66.3105 XXXY=           -140.8169
 XXXZ=              0.0000 YYYX=           -107.8583 YYYZ=              0.0000 ZZZX=              0.0000
 ZZZY=              0.0000 XXYY=           -170.7977 XXZZ=            -46.7137 YYZZ=           -163.1003
 XXYZ=              0.0000 YYXZ=              0.0000 ZZXY=            -51.6937
 N-N= 3.207392817687D+02 E-N=-5.254907681709D+03  KE= 1.934851348620D+03
 Symmetry A    KE= 1.417737238168D+03
 Symmetry B    KE= 5.171141104516D+02
                          Isotropic Fermi Contact Couplings
        Atom                 a.u.       MegaHertz       Gauss      10(-4) cm-1
     1  Zn(67)            -1.84485    -516.99506    -184.47669    -172.45099
     2  C(13)              0.12263     137.86335      49.19307      45.98627
     3  C(13)             -0.01966     -22.09632      -7.88452      -7.37054
     4  H(1)              -0.00134      -5.97987      -2.13377      -1.99467
     5  H(1)              -0.00134      -5.98277      -2.13480      -1.99564
     6  H(1)               0.02105      94.10213      33.57798      31.38909
     7  H(1)               0.00231      10.32960       3.68586       3.44558
     8  H(1)               0.00233      10.41431       3.71609       3.47384
     9  C(13)              0.12263     137.86333      49.19306      45.98626
    10  C(13)             -0.01966     -22.09621      -7.88448      -7.37050
    11  H(1)              -0.00134      -5.97986      -2.13376      -1.99467
    12  H(1)              -0.00134      -5.98276      -2.13480      -1.99564
    13  H(1)               0.02105      94.10205      33.57795      31.38906
    14  H(1)               0.00231      10.32951       3.68583       3.44555
    15  H(1)               0.00233      10.41423       3.71606       3.47381
 --------------------------------------------------------
       Center         ----  Spin Dipole Couplings  ----
                      3XX-RR        3YY-RR        3ZZ-RR
 --------------------------------------------------------
     1   Atom       -0.976666      1.955610     -0.978944
     2   Atom       -0.329896      0.660106     -0.330210
     3   Atom       -0.010927      0.028069     -0.017141
     4   Atom       -0.032921     -0.008630      0.041551
     5   Atom        0.004042     -0.008611      0.004569
     6   Atom       -0.000389      0.006747     -0.006358
     7   Atom        0.010428     -0.003958     -0.006470
     8   Atom        0.003762     -0.003977      0.000215
     9   Atom       -0.329896      0.660106     -0.330210
[...]
 Alpha virt. eigenvalues --    0.07265   0.08990   0.11115   0.11559   0.13218
 Alpha virt. eigenvalues --    0.15527   0.16776   0.18212   0.21244   0.23275
 Alpha virt. eigenvalues --    0.24149   0.24949   0.25058   0.25757   0.25929
 Alpha virt. eigenvalues --    0.29928   0.31688   0.38502   0.40997   0.42856
 Alpha virt. eigenvalues --    0.43210   0.43740   0.44609   0.45151   0.45449
 Alpha virt. eigenvalues --    0.46659   0.48252   0.49745   0.50727   0.50928
 Alpha virt. eigenvalues --    0.51720   0.53533   0.53843   0.54967   0.56696
 Alpha virt. eigenvalues --    0.58464   0.58924   0.63285   0.63757   0.70303
 Alpha virt. eigenvalues --    0.72313   0.74239   0.78122   0.78664   0.80185
 Alpha virt. eigenvalues --    0.82378   0.85270   0.88389   0.88756   0.89079
 Alpha virt. eigenvalues --    0.93136   0.94438   0.97348   0.99021   1.01005
 Alpha virt. eigenvalues --    1.01312   1.06519   1.06743   1.08616   1.09776
 Alpha virt. eigenvalues --    1.11475   1.11617   1.12096   1.13015   1.14047
 Alpha virt. eigenvalues --    1.16695   1.19042   1.19393   1.19863   1.19913
 Alpha virt. eigenvalues --    1.21554   1.22614   1.26360   1.28068   1.31472
 Alpha virt. eigenvalues --    1.31806   1.33577   1.34322   1.35594   1.36281
 Alpha virt. eigenvalues --    1.39993   1.40172   1.41348   1.42855   1.45737
 Alpha virt. eigenvalues --    1.47539   1.48016   1.54136   1.55423   1.57141
 Alpha virt. eigenvalues --    1.59488   1.63465   1.65393   1.73434   1.75267
 Alpha virt. eigenvalues --    2.31485   2.33722   2.35478   2.37850   2.42741
 Alpha virt. eigenvalues --    2.47315   2.48513   2.48944   2.51136   2.53031
 Alpha virt. eigenvalues --    2.56786   2.57902   2.60172   2.61247   2.67284
 Alpha virt. eigenvalues --    2.68052   2.69764   2.72878   2.73866   2.74502
 Alpha virt. eigenvalues --    2.80445   2.81597   2.84401   2.86982   2.87890
 Alpha virt. eigenvalues --    2.91008   2.91213   2.92484   2.92991   2.94072
 Alpha virt. eigenvalues --    2.96586   2.97002   2.97704   3.01202   3.02328
 Alpha virt. eigenvalues --    3.04002   3.07682   3.10063   3.11507   3.12912
 Alpha virt. eigenvalues --    3.12949   3.13458   3.15160   3.17301   3.20282
 Alpha virt. eigenvalues --    3.22157   3.22942   3.23146   3.25082   3.26398
 Alpha virt. eigenvalues --    3.27328   3.29400   3.32408   3.32434   3.35648
 Alpha virt. eigenvalues --    3.38021   3.38533   3.40615   3.42872   3.44844
 Alpha virt. eigenvalues --    3.48719   3.48847   3.50255   3.57367   3.57939
 Alpha virt. eigenvalues --    3.59468   3.59781   3.60550   3.62384   3.63545
 Alpha virt. eigenvalues --    3.64927   3.67593   3.69546   3.70218   3.79997
 Alpha virt. eigenvalues --    3.80064   3.81720   3.82225   3.88778   3.90991
 Alpha virt. eigenvalues --    3.92500   3.92537   3.93343   3.95584   3.96333
 Alpha virt. eigenvalues --    3.98106   3.99894   4.02395   4.03112   4.03782
 Alpha virt. eigenvalues --    4.04136   4.10466   4.13302   4.14469   4.15542
 Alpha virt. eigenvalues --    4.15996   4.18963   4.19021   4.21588   4.23086
 Alpha virt. eigenvalues --    4.23218   4.23998   4.25703   4.26819   4.27449
 Alpha virt. eigenvalues --    4.27684   4.29753   4.30056   4.34848   4.39353
 Alpha virt. eigenvalues --    4.40358   4.41651   4.41734   4.42322   4.46032
 Alpha virt. eigenvalues --    4.48685   4.49524   4.50176   4.51245   4.57668
 Alpha virt. eigenvalues --    4.59143   4.64737   4.74447   4.77201   4.77275
 Alpha virt. eigenvalues --    4.83269   4.84048   4.84242   4.89888   4.97048
 Alpha virt. eigenvalues --    4.98187   4.98657   4.98724   4.99647   5.03852
 Alpha virt. eigenvalues --    5.04722   5.04822   5.06635   5.12364   5.13068
 Alpha virt. eigenvalues --    5.13515   5.24136   5.26807   5.34209   5.35015
 Alpha virt. eigenvalues --    5.37083   5.39568   5.40592   5.46535   5.47624
 Alpha virt. eigenvalues --    5.52901   5.53002   5.53112   5.53468   5.55646
 Alpha virt. eigenvalues --    5.57110   5.60060   5.61169   5.65097   5.65982
 Alpha virt. eigenvalues --    6.09854   6.10959   6.12296   6.12354   6.13230
 Alpha virt. eigenvalues --    6.14678  10.68884  10.71321  10.96542  11.00211
 Alpha virt. eigenvalues --   11.44537  12.00461  12.10197  13.60317  13.63133
 Alpha virt. eigenvalues --   16.00610  16.00625  16.02452  16.02852  16.08782
 Alpha virt. eigenvalues --   16.09201  16.22534  16.69148  16.69148  16.69370
 Alpha virt. eigenvalues --   16.69371  16.69581  16.69612  16.70104  16.70112
 Alpha virt. eigenvalues --   16.71105
  Beta  occ. eigenvalues -- -353.53864 -44.59930 -39.16303 -39.16294 -39.15910
  Beta  occ. eigenvalues --  -11.42905 -11.42904 -11.38972 -11.38972  -5.87702
  Beta  occ. eigenvalues --   -4.07936  -4.07924  -4.07524  -1.18484  -1.17757
  Beta  occ. eigenvalues --   -1.03886  -1.02562  -1.02366  -1.02360  -1.02230
  Beta  occ. eigenvalues --   -0.99169  -0.97043  -0.78012  -0.77455  -0.72672
  Beta  occ. eigenvalues --   -0.72402  -0.68824  -0.68724  -0.66462  -0.66242
  Beta  occ. eigenvalues --   -0.52818
  Beta virt. eigenvalues --   -0.22924  -0.09274  -0.09152  -0.06592  -0.00431
  Beta virt. eigenvalues --    0.04021   0.04310   0.05470   0.05824   0.06336
  Beta virt. eigenvalues --    0.07422   0.08989   0.09487   0.11161   0.11581
  Beta virt. eigenvalues --    0.13313   0.15200   0.17149   0.19199   0.22146
  Beta virt. eigenvalues --    0.23453   0.24335   0.25059   0.25435   0.26437
  Beta virt. eigenvalues --    0.26747   0.31229   0.34344   0.39600   0.41059
  Beta virt. eigenvalues --    0.43933   0.44218   0.44919   0.45646   0.46059
  Beta virt. eigenvalues --    0.47026   0.47475   0.49154   0.50661   0.51092
  Beta virt. eigenvalues --    0.51148   0.52033   0.53736   0.54292   0.55677
  Beta virt. eigenvalues --    0.58196   0.58543   0.59770   0.64154   0.64469
  Beta virt. eigenvalues --    0.70593   0.72782   0.74986   0.78764   0.79121
  Beta virt. eigenvalues --    0.80263   0.82564   0.86147   0.88984   0.89153
  Beta virt. eigenvalues --    0.90686   0.93461   0.94715   0.98068   0.99088
  Beta virt. eigenvalues --    1.01170   1.01492   1.06917   1.07397   1.09189
  Beta virt. eigenvalues --    1.10187   1.11934   1.12202   1.12602   1.13752
  Beta virt. eigenvalues --    1.14852   1.18057   1.19427   1.19821   1.20083
  Beta virt. eigenvalues --    1.20149   1.21899   1.23250   1.26780   1.29224
  Beta virt. eigenvalues --    1.32382   1.33802   1.34238   1.34945   1.35966
  Beta virt. eigenvalues --    1.37153   1.40633   1.40946   1.41601   1.43182
  Beta virt. eigenvalues --    1.46603   1.48174   1.48566   1.54914   1.55895
  Beta virt. eigenvalues --    1.58170   1.60082   1.63812   1.65821   1.74090
  Beta virt. eigenvalues --    1.76076   2.31740   2.33991   2.36365   2.38759
  Beta virt. eigenvalues --    2.43390   2.47852   2.49117   2.49502   2.51487
  Beta virt. eigenvalues --    2.53387   2.57053   2.60242   2.62238   2.63353
  Beta virt. eigenvalues --    2.67794   2.68606   2.70777   2.73777   2.75430
  Beta virt. eigenvalues --    2.75581   2.81511   2.81912   2.84473   2.88852
  Beta virt. eigenvalues --    2.89213   2.91495   2.92753   2.92853   2.93267
  Beta virt. eigenvalues --    2.94591   2.96800   2.97543   2.98162   3.01787
  Beta virt. eigenvalues --    3.03009   3.04625   3.08487   3.10368   3.11863
  Beta virt. eigenvalues --    3.13270   3.13714   3.13753   3.15923   3.18181
  Beta virt. eigenvalues --    3.21377   3.22596   3.23111   3.23374   3.25275
  Beta virt. eigenvalues --    3.26779   3.28786   3.31461   3.33624   3.34154
  Beta virt. eigenvalues --    3.37451   3.39217   3.39527   3.41861   3.43987
  Beta virt. eigenvalues --    3.45554   3.48883   3.49001   3.50685   3.57604
  Beta virt. eigenvalues --    3.58076   3.59613   3.60088   3.60788   3.62614
  Beta virt. eigenvalues --    3.64006   3.65298   3.68034   3.69954   3.71046
  Beta virt. eigenvalues --    3.80228   3.80801   3.82088   3.83098   3.89342
  Beta virt. eigenvalues --    3.91148   3.92710   3.92928   3.93697   3.95911
  Beta virt. eigenvalues --    3.96670   3.98829   4.00243   4.02621   4.03394
  Beta virt. eigenvalues --    4.04117   4.04606   4.10841   4.13881   4.14676
  Beta virt. eigenvalues --    4.15888   4.16131   4.18868   4.18908   4.22277
  Beta virt. eigenvalues --    4.23524   4.23592   4.24222   4.26134   4.26889
  Beta virt. eigenvalues --    4.27491   4.27728   4.29872   4.30270   4.35355
  Beta virt. eigenvalues --    4.39486   4.40490   4.41718   4.41804   4.42374
  Beta virt. eigenvalues --    4.46127   4.49032   4.49791   4.50276   4.51400
  Beta virt. eigenvalues --    4.58267   4.59723   4.65106   4.74837   4.77166
  Beta virt. eigenvalues --    4.77294   4.83649   4.84441   4.84640   4.90560
  Beta virt. eigenvalues --    4.97580   4.98365   4.98842   4.98913   4.99981
  Beta virt. eigenvalues --    5.04203   5.05009   5.05111   5.07037   5.12714
  Beta virt. eigenvalues --    5.13389   5.13769   5.24491   5.27102   5.34634
  Beta virt. eigenvalues --    5.35443   5.37384   5.39750   5.41103   5.46746
  Beta virt. eigenvalues --    5.47790   5.53055   5.53158   5.53402   5.53838
  Beta virt. eigenvalues --    5.55802   5.57318   5.60298   5.61403   5.65537
  Beta virt. eigenvalues --    5.66462   6.10280   6.11074   6.12473   6.12486
  Beta virt. eigenvalues --    6.13468   6.15183  10.68827  10.71268  10.96623
  Beta virt. eigenvalues --   11.00298  11.44854  12.01375  12.11121  13.60332
  Beta virt. eigenvalues --   13.63148  16.00428  16.00444  16.02501  16.02902
  Beta virt. eigenvalues --   16.09068  16.09489  16.22926  16.69124  16.69124
  Beta virt. eigenvalues --   16.69369  16.69370  16.69610  16.69641  16.70158
  Beta virt. eigenvalues --   16.70165  16.71171
          Condensed to atoms (all electrons):
               1          2          3          4          5          6
     1  Zn  28.819287   0.220948  -0.027006  -0.011199  -0.010617   0.005787
     2  C    0.220948   5.088183   0.321287   0.414419   0.414509  -0.022148
     3  C   -0.027006   0.321287   4.809517  -0.031477  -0.031518   0.407047
     4  H   -0.011199   0.414419  -0.031477   0.501975  -0.029924  -0.004520
     5  H   -0.010617   0.414509  -0.031518  -0.029924   0.500678  -0.004577
     6  H    0.005787  -0.022148   0.407047  -0.004520  -0.004577   0.506037
     7  H   -0.002662  -0.031720   0.418046  -0.004070   0.004886  -0.024496
     8  H   -0.002681  -0.032310   0.417869   0.004959  -0.004108  -0.024366
     9  C    0.220948  -0.007129  -0.000122  -0.000331  -0.000398  -0.000003
    10  C   -0.027006  -0.000122   0.000004   0.000025   0.000030  -0.000001
    11  H   -0.011199  -0.000331   0.000025   0.000008   0.000034  -0.000001
    12  H   -0.010617  -0.000398   0.000030   0.000034   0.000024  -0.000001
    13  H    0.005787  -0.000003  -0.000001  -0.000001  -0.000001   0.000000
    14  H   -0.002662  -0.000028  -0.000001   0.000021   0.000010   0.000000
    15  H   -0.002681  -0.000024   0.000003  -0.000002   0.000041   0.000000
               7          8          9         10         11         12
     1  Zn  -0.002662  -0.002681   0.220948  -0.027006  -0.011199  -0.010617
     2  C   -0.031720  -0.032310  -0.007129  -0.000122  -0.000331  -0.000398
     3  C    0.418046   0.417869  -0.000122   0.000004   0.000025   0.000030
     4  H   -0.004070   0.004959  -0.000331   0.000025   0.000008   0.000034
     5  H    0.004886  -0.004108  -0.000398   0.000030   0.000034   0.000024
     6  H   -0.024496  -0.024366  -0.000003  -0.000001  -0.000001  -0.000001
     7  H    0.547815  -0.032444  -0.000028  -0.000001   0.000021   0.000010
     8  H   -0.032444   0.548915  -0.000024   0.000003  -0.000002   0.000041
     9  C   -0.000028  -0.000024   5.088183   0.321287   0.414419   0.414509
    10  C   -0.000001   0.000003   0.321287   4.809517  -0.031477  -0.031518
    11  H    0.000021  -0.000002   0.414419  -0.031477   0.501975  -0.029924
    12  H    0.000010   0.000041   0.414509  -0.031518  -0.029924   0.500678
    13  H    0.000000   0.000000  -0.022148   0.407047  -0.004520  -0.004577
    14  H    0.000000   0.000001  -0.031720   0.418046  -0.004070   0.004886
    15  H    0.000001  -0.000002  -0.032310   0.417869   0.004959  -0.004108
              13         14         15
     1  Zn   0.005787  -0.002662  -0.002681
     2  C   -0.000003  -0.000028  -0.000024
     3  C   -0.000001  -0.000001   0.000003
     4  H   -0.000001   0.000021  -0.000002
     5  H   -0.000001   0.000010   0.000041
     6  H    0.000000   0.000000   0.000000
     7  H    0.000000   0.000000   0.000001
     8  H    0.000000   0.000001  -0.000002
     9  C   -0.022148  -0.031720  -0.032310
    10  C    0.407047   0.418046   0.417869
    11  H   -0.004520  -0.004070   0.004959
    12  H   -0.004577   0.004886  -0.004108
    13  H    0.506037  -0.024496  -0.024366
    14  H   -0.024496   0.547815  -0.032444
    15  H   -0.024366  -0.032444   0.548915
          Atomic-Atomic Spin Densities.
               1          2          3          4          5          6
     1  Zn  -0.424492   0.049935   0.006822   0.009472   0.009703  -0.001569
     2  C    0.049935   0.597362  -0.021445   0.004340   0.004385  -0.009003
     3  C    0.006822  -0.021445  -0.025433   0.001232   0.001206   0.009630
     4  H    0.009472   0.004340   0.001232  -0.016707   0.001384  -0.000509
     5  H    0.009703   0.004385   0.001206   0.001384  -0.017061  -0.000483
     6  H   -0.001569  -0.009003   0.009630  -0.000509  -0.000483   0.044341
     7  H    0.001978  -0.001711   0.001537   0.000156  -0.000137  -0.001688
     8  H    0.001912  -0.001755   0.001586  -0.000127   0.000156  -0.001752
     9  C    0.049935  -0.011406   0.000630   0.000130   0.000123  -0.000036
    10  C    0.006822   0.000630  -0.000024  -0.000031  -0.000047   0.000001
    11  H    0.009472   0.000130  -0.000031  -0.000027  -0.000014   0.000001
    12  H    0.009703   0.000123  -0.000047  -0.000014  -0.000019   0.000002
    13  H   -0.001569  -0.000036   0.000001   0.000001   0.000002   0.000000
    14  H    0.001978   0.000043  -0.000002  -0.000008  -0.000009   0.000000
    15  H    0.001912   0.000055  -0.000003  -0.000004  -0.000013   0.000000
               7          8          9         10         11         12
     1  Zn   0.001978   0.001912   0.049935   0.006822   0.009472   0.009703
     2  C   -0.001711  -0.001755  -0.011406   0.000630   0.000130   0.000123
     3  C    0.001537   0.001586   0.000630  -0.000024  -0.000031  -0.000047
     4  H    0.000156  -0.000127   0.000130  -0.000031  -0.000027  -0.000014
     5  H   -0.000137   0.000156   0.000123  -0.000047  -0.000014  -0.000019
     6  H   -0.001688  -0.001752  -0.000036   0.000001   0.000001   0.000002
     7  H    0.004267   0.000210   0.000043  -0.000002  -0.000008  -0.000009
     8  H    0.000210   0.004385   0.000055  -0.000003  -0.000004  -0.000013
     9  C    0.000043   0.000055   0.597362  -0.021445   0.004340   0.004385
    10  C   -0.000002  -0.000003  -0.021445  -0.025433   0.001232   0.001206
    11  H   -0.000008  -0.000004   0.004340   0.001232  -0.016707   0.001384
    12  H   -0.000009  -0.000013   0.004385   0.001206   0.001384  -0.017061
    13  H    0.000000   0.000000  -0.009003   0.009630  -0.000509  -0.000483
    14  H    0.000000   0.000000  -0.001711   0.001537   0.000156  -0.000137
    15  H    0.000000  -0.000001  -0.001755   0.001586  -0.000127   0.000156
              13         14         15
     1  Zn  -0.001569   0.001978   0.001912
     2  C   -0.000036   0.000043   0.000055
     3  C    0.000001  -0.000002  -0.000003
     4  H    0.000001  -0.000008  -0.000004
     5  H    0.000002  -0.000009  -0.000013
     6  H    0.000000   0.000000   0.000000
     7  H    0.000000   0.000000   0.000000
     8  H    0.000000   0.000000  -0.000001
     9  C   -0.009003  -0.001711  -0.001755
    10  C    0.009630   0.001537   0.001586
    11  H   -0.000509   0.000156  -0.000127
    12  H   -0.000483  -0.000137   0.000156
    13  H    0.044341  -0.001688  -0.001752
    14  H   -0.001688   0.004267   0.000210
    15  H   -0.001752   0.000210   0.004385
 Mulliken charges and spin densities:
               1          2
     1  Zn   0.835574  -0.267986
     2  C   -0.365133   0.611647
     3  C   -0.283704  -0.024340
     4  H    0.160083  -0.000711
     5  H    0.160932  -0.000824
     6  H    0.161242   0.038936
     7  H    0.124643   0.004636
     8  H    0.124149   0.004650
     9  C   -0.365133   0.611647
    10  C   -0.283704  -0.024340
    11  H    0.160083  -0.000711
    12  H    0.160932  -0.000824
    13  H    0.161242   0.038936
    14  H    0.124643   0.004636
    15  H    0.124149   0.004650
 Sum of Mulliken charges =   1.00000   1.00000
 Mulliken charges and spin densities with hydrogens summed into heavy atoms:
               1          2
     1  Zn   0.835574  -0.267986
     2  C   -0.044117   0.610112
     3  C    0.126330   0.023881
     9  C   -0.044117   0.610112
    10  C    0.126330   0.023881
 Electronic spatial extent (au):  <R**2>=            936.9391
 Charge=              1.0000 electrons
 Dipole moment (field-independent basis, Debye):
    X=              0.0000    Y=              0.0000    Z=              0.1647  Tot=              0.1647
 Quadrupole moment (field-independent basis, Debye-Ang):
   XX=            -34.9331   YY=            -19.5179   ZZ=            -36.6877
   XY=              3.7625   XZ=              0.0000   YZ=              0.0000
 Traceless Quadrupole moment (field-independent basis, Debye-Ang):
   XX=             -4.5535   YY=             10.8617   ZZ=             -6.3081
   XY=              3.7625   XZ=              0.0000   YZ=              0.0000
 Octapole moment (field-independent basis, Debye-Ang**2):
  XXX=              0.0000  YYY=              0.0000  ZZZ=              3.7438  XYY=              0.0000
  XXY=              0.0000  XXZ=              0.4223  XZZ=              0.0000  YZZ=              0.0000
  YYZ=             -0.1179  XYZ=             -1.1089
 Hexadecapole moment (field-independent basis, Debye-Ang**3):
 XXXX=           -227.0553 YYYY=           -755.1181 ZZZZ=            -66.3105 XXXY=           -140.8169
 XXXZ=              0.0000 YYYX=           -107.8583 YYYZ=              0.0000 ZZZX=              0.0000
 ZZZY=              0.0000 XXYY=           -170.7977 XXZZ=            -46.7137 YYZZ=           -163.1003
 XXYZ=              0.0000 YYXZ=              0.0000 ZZXY=            -51.6937
 N-N= 3.207392817687D+02 E-N=-5.254907681925D+03  KE= 1.934851348710D+03
 1\1\GINC-GAMBA\SP\UCCSD(T)-FC\Gen\C4H10Zn1(1+,2)\IRIKURA\26-May-2017\0
 \\# CCSD(T,maxcyc=100)/GEN gfinput geom=check scf=xqc guess=check\\BEB
  step 8: low-spin CCSD(T) for cation of ZnEt2\\1,2\Zn,0,0.,0.,0.092059
 \C,0,0.,1.933945,0.090127\C,0,1.360973,2.577345,-0.233751\H,0,-0.34659
 4,2.294125,1.069841\H,0,-0.75069,2.294418,-0.628225\H,0,1.311324,3.675
 407,-0.22301\H,0,2.134924,2.28887,0.488877\H,0,1.727459,2.287037,-1.22
 6622\C,0,0.,-1.933945,0.090127\C,0,-1.360973,-2.577345,-0.233751\H,0,0
 .346594,-2.294125,1.069841\H,0,0.75069,-2.294418,-0.628225\H,0,-1.3113
 24,-3.675407,-0.22301\H,0,-2.134924,-2.28887,0.488877\H,0,-1.727459,-2
 .287037,-1.226622\\Version=ES64L-G09RevD.01\State=2-B\HF=-1934.8727699
 \MP2=-1936.087357\MP3=-1936.0681995\MP4D=-1936.1051767\MP4DQ=-1936.088
 2594\PUHF=-1934.8835045\PMP2-0=-1936.0957726\PMP3-0=-1936.073473\MP4SD
 Q=-1936.1022093\CCSD=-1936.0932217\CCSD(T)=-1936.1391712\S2=0.862647\S
 2-1=0.813507\S2A=0.751816\RMSD=2.346e-10\PG=C02 [C2(Zn1),X(C4H10)]\\@


 The number of Unix installations has grown to 10,
  with more expected.
                  -- The Unix Programmer's Manual,
                     2nd Edition, June, 1972.
 Job cpu time:       1 days 12 hours 35 minutes 17.4 seconds.
 File lengths (MBytes):  RWF=  34559 Int=      0 D2E=      0 Chk=     21 Scr=      1
 Normal termination of Gaussian 09 at Fri May 26 18:24:22 2017.
