 Entering Gaussian System, Link 0=g09
 Initial command:
 /usr/local/apps/g09/l1.exe "/wrk/irikura/Gau-4271.inp" -scrdir="/wrk/irikura/"
 Entering Link 1 = /usr/local/apps/g09/l1.exe PID=      4273.
  
 Copyright (c) 1988,1990,1992,1993,1995,1998,2003,2009,2013,
            Gaussian, Inc.  All Rights Reserved.
  
 This is part of the Gaussian(R) 09 program.  It is based on
 the Gaussian(R) 03 system (copyright 2003, Gaussian, Inc.),
 the Gaussian(R) 98 system (copyright 1998, Gaussian, Inc.),
 the Gaussian(R) 94 system (copyright 1995, Gaussian, Inc.),
 the Gaussian 92(TM) system (copyright 1992, Gaussian, Inc.),
 the Gaussian 90(TM) system (copyright 1990, Gaussian, Inc.),
 the Gaussian 88(TM) system (copyright 1988, Gaussian, Inc.),
 the Gaussian 86(TM) system (copyright 1986, Carnegie Mellon
 University), and the Gaussian 82(TM) system (copyright 1983,
 Carnegie Mellon University). Gaussian is a federally registered
 trademark of Gaussian, Inc.
  
 This software contains proprietary and confidential information,
 including trade secrets, belonging to Gaussian, Inc.
  
 This software is provided under written license and may be
 used, copied, transmitted, or stored only in accord with that
 written license.
  
 The following legend is applicable only to US Government
 contracts under FAR:
  
                    RESTRICTED RIGHTS LEGEND
  
 Use, reproduction and disclosure by the US Government is
 subject to restrictions as set forth in subparagraphs (a)
 and (c) of the Commercial Computer Software - Restricted
 Rights clause in FAR 52.227-19.
  
 Gaussian, Inc.
 340 Quinnipiac St., Bldg. 40, Wallingford CT 06492
  
  
 ---------------------------------------------------------------
 Warning -- This program may not be used in any manner that
 competes with the business of Gaussian, Inc. or will provide
 assistance to any competitor of Gaussian, Inc.  The licensee
 of this program is prohibited from giving any competitor of
 Gaussian, Inc. access to this program.  By using this program,
 the user acknowledges that Gaussian, Inc. is engaged in the
 business of creating and licensing software in the field of
 computational chemistry and represents and warrants to the
 licensee that it is not a competitor of Gaussian, Inc. and that
 it will not use this program in any manner prohibited above.
 ---------------------------------------------------------------
  

 Cite this work as:
 Gaussian 09, Revision D.01,
 M. J. Frisch, G. W. Trucks, H. B. Schlegel, G. E. Scuseria, 
 M. A. Robb, J. R. Cheeseman, G. Scalmani, V. Barone, B. Mennucci, 
 G. A. Petersson, H. Nakatsuji, M. Caricato, X. Li, H. P. Hratchian, 
 A. F. Izmaylov, J. Bloino, G. Zheng, J. L. Sonnenberg, M. Hada, 
 M. Ehara, K. Toyota, R. Fukuda, J. Hasegawa, M. Ishida, T. Nakajima, 
 Y. Honda, O. Kitao, H. Nakai, T. Vreven, J. A. Montgomery, Jr., 
 J. E. Peralta, F. Ogliaro, M. Bearpark, J. J. Heyd, E. Brothers, 
 K. N. Kudin, V. N. Staroverov, T. Keith, R. Kobayashi, J. Normand, 
 K. Raghavachari, A. Rendell, J. C. Burant, S. S. Iyengar, J. Tomasi, 
 M. Cossi, N. Rega, J. M. Millam, M. Klene, J. E. Knox, J. B. Cross, 
 V. Bakken, C. Adamo, J. Jaramillo, R. Gomperts, R. E. Stratmann, 
 O. Yazyev, A. J. Austin, R. Cammi, C. Pomelli, J. W. Ochterski, 
 R. L. Martin, K. Morokuma, V. G. Zakrzewski, G. A. Voth, 
 P. Salvador, J. J. Dannenberg, S. Dapprich, A. D. Daniels, 
 O. Farkas, J. B. Foresman, J. V. Ortiz, J. Cioslowski, 
 and D. J. Fox, Gaussian, Inc., Wallingford CT, 2013.
 
 ******************************************
 Gaussian 09:  ES64L-G09RevD.01 24-Apr-2013
                25-May-2017 
 ******************************************
 %chk=ZnEt2.chk
 %nprocs=6
 Will use up to    6 processors via shared memory.
 %mem=4000mw
 --------------------------------------------------
 # HF/GEN geom=check guess=check scf=xqc stable=opt
 --------------------------------------------------
 1/29=2,38=1/1;
 2/12=2,40=1/2;
 3/5=7,11=2,14=-4,16=1,25=1,30=1,116=-2/1,2,3;
 4/5=1/1;
 5/5=2,8=3,13=1,38=6/2,8;
 6/7=2,8=2,9=2,10=2,28=1/1;
 8/6=1,10=90,11=11/1;
 9/8=-3,42=1,46=1/14;
 5/5=2,8=3,17=40,38=6/8(-2);
 6/7=2,8=2,9=2,10=2,28=1/1;
 99/5=1,9=1/99;
 --------------------------------------
 HF stabilization to precede BEB step 5
 --------------------------------------
 Structure from the checkpoint file:  "ZnEt2.chk"
 Charge =  1 Multiplicity = 2
 Redundant internal coordinates found in file.
 Zn,0,0.,0.,0.092059
 C,0,0.,1.933945,0.090127
 C,0,1.360973,2.577345,-0.233751
 H,0,-0.346594,2.294125,1.069841
 H,0,-0.75069,2.294418,-0.628225
 H,0,1.311324,3.675407,-0.22301
 H,0,2.134924,2.28887,0.488877
 H,0,1.727459,2.287037,-1.226622
 C,0,0.,-1.933945,0.090127
 C,0,-1.360973,-2.577345,-0.233751
 H,0,0.346594,-2.294125,1.069841
 H,0,0.75069,-2.294418,-0.628225
 H,0,-1.311324,-3.675407,-0.22301
 H,0,-2.134924,-2.28887,0.488877
 H,0,-1.727459,-2.287037,-1.226622
 Recover connectivity data from disk.
                          Input orientation:                          
 ---------------------------------------------------------------------
 Center     Atomic      Atomic             Coordinates (Angstroms)
 Number     Number       Type             X           Y           Z
 ---------------------------------------------------------------------
      1         30           0        0.000000    0.000000    0.092059
      2          6           0        0.000000    1.933945    0.090127
      3          6           0        1.360973    2.577345   -0.233751
      4          1           0       -0.346594    2.294125    1.069841
      5          1           0       -0.750690    2.294418   -0.628225
      6          1           0        1.311324    3.675407   -0.223010
      7          1           0        2.134924    2.288870    0.488877
      8          1           0        1.727459    2.287037   -1.226622
      9          6           0        0.000000   -1.933945    0.090127
     10          6           0       -1.360973   -2.577345   -0.233751
     11          1           0        0.346594   -2.294125    1.069841
     12          1           0        0.750690   -2.294418   -0.628225
     13          1           0       -1.311324   -3.675407   -0.223010
     14          1           0       -2.134924   -2.288870    0.488877
     15          1           0       -1.727459   -2.287037   -1.226622
 ---------------------------------------------------------------------
                    Distance matrix (angstroms):
                    1          2          3          4          5
     1  Zn   0.000000
     2  C    1.933946   0.000000
     3  C    2.932764   1.539840   0.000000
     4  H    2.517776   1.099862   2.166876   0.000000
     5  H    2.519265   1.099775   2.166744   1.745486   0.000000
     6  H    3.915029   2.202343   1.099236   2.515571   2.514604
     7  H    3.155042   2.200653   1.097456   2.548623   3.094304
     8  H    3.154928   2.200595   1.097444   3.094429   2.549383
     9  C    1.933946   3.867890   4.723228   4.353911   4.354150
    10  C    2.932764   4.723228   5.829221   5.143883   4.925660
    11  H    2.517776   4.353911   5.143883   4.640318   5.014199
    12  H    2.519265   4.354150   4.925660   5.014199   4.828204
    13  H    3.915029   5.769095   6.799867   6.183646   6.009769
    14  H    3.155042   4.748586   6.035191   4.953735   4.916355
    15  H    3.154928   4.747066   5.846915   5.307313   4.722487
                    6          7          8          9         10
     6  H    0.000000
     7  H    1.762834   0.000000
     8  H    1.762945   1.763227   0.000000
     9  C    5.769095   4.748586   4.747066   0.000000
    10  C    6.799867   6.035191   5.846915   1.539840   0.000000
    11  H    6.183646   4.953735   5.307313   1.099862   2.166876
    12  H    6.009769   4.916355   4.722487   1.099775   2.166744
    13  H    7.804662   6.925028   6.766992   2.202343   1.099236
    14  H    6.925028   6.259976   6.228954   2.200653   1.097456
    15  H    6.766992   6.228954   5.732243   2.200595   1.097444
                   11         12         13         14         15
    11  H    0.000000
    12  H    1.745486   0.000000
    13  H    2.515571   2.514604   0.000000
    14  H    2.548623   3.094304   1.762834   0.000000
    15  H    3.094429   2.549383   1.762945   1.763227   0.000000
 Stoichiometry    C4H10Zn(1+,2)
 Framework group  C2[C2(Zn),X(C4H10)]
 Deg. of freedom    20
 Full point group                 C2      NOp   2
 Largest Abelian subgroup         C2      NOp   2
 Largest concise Abelian subgroup C2      NOp   2
                         Standard orientation:                         
 ---------------------------------------------------------------------
 Center     Atomic      Atomic             Coordinates (Angstroms)
 Number     Number       Type             X           Y           Z
 ---------------------------------------------------------------------
      1         30           0        0.000000    0.000000    0.092059
      2          6           0        0.000000    1.933945    0.090127
      3          6           0        1.360973    2.577345   -0.233751
      4          1           0       -0.346594    2.294125    1.069841
      5          1           0       -0.750690    2.294418   -0.628225
      6          1           0        1.311324    3.675407   -0.223010
      7          1           0        2.134924    2.288870    0.488877
      8          1           0        1.727459    2.287037   -1.226622
      9          6           0        0.000000   -1.933945    0.090127
     10          6           0       -1.360973   -2.577345   -0.233751
     11          1           0        0.346594   -2.294125    1.069841
     12          1           0        0.750690   -2.294418   -0.628225
     13          1           0       -1.311324   -3.675407   -0.223010
     14          1           0       -2.134924   -2.288870    0.488877
     15          1           0       -1.727459   -2.287037   -1.226622
 ---------------------------------------------------------------------
 Rotational constants (GHZ):     14.6723335      1.3797086      1.3187032
 General basis read from cards:  (5D, 7F)
 There are   113 symmetry adapted cartesian basis functions of A   symmetry.
 There are   104 symmetry adapted cartesian basis functions of B   symmetry.
 There are   106 symmetry adapted basis functions of A   symmetry.
 There are   100 symmetry adapted basis functions of B   symmetry.
   206 basis functions,   318 primitive gaussians,   217 cartesian basis functions
    32 alpha electrons       31 beta electrons
       nuclear repulsion energy       320.7392817687 Hartrees.
 NAtoms=   15 NActive=   15 NUniq=    8 SFac= 3.52D+00 NAtFMM=   60 NAOKFM=F Big=F
 Integral buffers will be    131072 words long.
 Raffenetti 2 integral format.
 Two-electron integral symmetry is turned on.
 One-electron integrals computed using PRISM.
 NBasis=   206 RedAO= T EigKep=  6.07D-05  NBF=   106   100
 NBsUse=   206 1.00D-06 EigRej= -1.00D+00 NBFU=   106   100
 Initial guess from the checkpoint file:  "ZnEt2.chk"
 B after Tr=     0.000000    0.000000    0.000000
         Rot=    1.000000    0.000000    0.000000    0.000000 Ang=   0.00 deg.
 Initial guess orbital symmetries:
 Alpha Orbitals:
       Occupied  (A) (A) (B) (A) (B) (A) (B) (B) (A) (A) (B) (A)
                 (B) (A) (B) (A) (B) (B) (A) (B) (A) (A) (A) (B)
                 (A) (B) (B) (A) (A) (B) (A) (B)
       Virtual   (A) (B) (A) (B) (A) (A) (B) (B) (A) (A) (A) (B)
                 (B) (A) (B) (A) (B) (A) (B) (A) (B) (A) (B) (A)
                 (B) (B) (B) (A) (A) (A) (A) (B) (B) (A) (A) (B)
                 (A) (B) (B) (A) (B) (A) (B) (A) (B) (A) (B) (A)
                 (B) (A) (B) (A) (A) (B) (B) (A) (B) (B) (A) (A)
                 (B) (A) (B) (B) (A) (A) (A) (B) (A) (B) (A) (B)
                 (A) (B) (B) (A) (A) (A) (B) (B) (A) (B) (B) (A)
                 (B) (A) (B) (A) (A) (B) (B) (A) (A) (B) (A) (B)
                 (B) (B) (A) (A) (B) (A) (A) (B) (A) (B) (A) (B)
                 (A) (B) (B) (A) (A) (B) (B) (A) (B) (A) (A) (B)
                 (A) (B) (A) (A) (B) (B) (A) (B) (B) (B) (A) (A)
                 (A) (B) (B) (A) (B) (A) (B) (A) (A) (B) (A) (B)
                 (A) (B) (B) (A) (A) (B) (A) (B) (B) (A) (A) (B)
                 (B) (A) (B) (A) (A) (A) (B) (B) (A) (B) (B) (A)
                 (A) (A) (B) (B) (A) (A)
 Beta  Orbitals:
       Occupied  (A) (A) (B) (A) (B) (A) (B) (B) (A) (A) (B) (A)
                 (B) (A) (B) (A) (B) (B) (A) (B) (A) (A) (A) (B)
                 (A) (B) (B) (A) (A) (B) (A)
       Virtual   (B) (A) (B) (A) (B) (A) (A) (B) (B) (A) (A) (A)
                 (B) (B) (A) (B) (A) (B) (A) (B) (A) (B) (A) (B)
                 (A) (B) (B) (B) (A) (A) (A) (A) (B) (B) (A) (A)
                 (B) (A) (B) (B) (A) (B) (A) (B) (A) (B) (A) (B)
                 (A) (B) (A) (B) (A) (A) (B) (B) (A) (B) (B) (A)
                 (A) (B) (A) (B) (B) (A) (A) (A) (B) (A) (B) (A)
                 (B) (A) (B) (B) (A) (A) (A) (B) (B) (A) (B) (B)
                 (A) (B) (A) (B) (A) (A) (B) (B) (A) (A) (B) (A)
                 (B) (B) (B) (A) (A) (B) (A) (A) (B) (A) (B) (A)
                 (B) (A) (B) (B) (A) (A) (B) (B) (A) (B) (A) (A)
                 (B) (A) (B) (A) (A) (B) (B) (A) (B) (B) (B) (A)
                 (A) (A) (B) (B) (A) (B) (A) (B) (A) (A) (B) (A)
                 (B) (A) (B) (B) (A) (A) (B) (A) (B) (B) (A) (A)
                 (B) (B) (A) (B) (A) (A) (A) (B) (B) (A) (B) (B)
                 (A) (A) (A) (B) (B) (A) (A)
 Initial guess <Sx>= 0.0000 <Sy>= 0.0000 <Sz>= 0.5000 <S**2>= 0.7500 S= 0.5000
 Keep R1 and R2 ints in memory in symmetry-blocked form, NReq=341176812.
 Requested convergence on RMS density matrix=1.00D-08 within  64 cycles.
 Requested convergence on MAX density matrix=1.00D-06.
 Requested convergence on             energy=1.00D-06.
 No special actions if energy rises.
 SCF Done:  E(UHF) =  -1934.70442986     A.U. after   15 cycles
            NFock= 15  Conv=0.80D-08     -V/T= 1.9996
 <Sx>= 0.0000 <Sy>= 0.0000 <Sz>= 0.5000 <S**2>= 0.8603 S= 0.5537
 <L.S>= 0.000000000000E+00
 Annihilation of the first spin contaminant:
 S**2 before annihilation     0.8603,   after     0.7517
 QCSCF skips out because SCF is already converged.

 **********************************************************************

            Population analysis using the SCF density.

 **********************************************************************

 Orbital symmetries:
 Alpha Orbitals:
       Occupied  (A) (A) (B) (A) (B) (B) (A) (A) (B) (A) (B) (B)
                 (A) (A) (B) (A) (B) (A) (B) (A) (B) (A) (A) (B)
                 (A) (B) (B) (A) (A) (B) (A) (B)
       Virtual   (A) (B) (A) (B) (A) (A) (A) (B) (A) (B) (A) (B)
                 (B) (A) (B) (B) (A) (A) (A) (B) (A) (B) (B) (B)
                 (A) (A) (B) (A) (B) (A) (A) (B) (B) (A) (A) (B)
                 (B) (A) (B) (A) (B) (A) (B) (A) (B) (A) (B) (A)
                 (B) (B) (A) (A) (B) (A) (B) (B) (A) (A) (B) (A)
                 (B) (B) (A) (A) (A) (B) (A) (B) (A) (B) (A) (B)
                 (A) (B) (B) (A) (A) (B) (B) (A) (B) (A) (B) (A)
                 (B) (A) (B) (A) (A) (B) (B) (A) (A) (B) (A) (B)
                 (B) (B) (A) (B) (A) (A) (A) (B) (A) (B) (A) (B)
                 (A) (B) (A) (B) (A) (B) (B) (A) (B) (A) (A) (B)
                 (B) (A) (A) (A) (B) (B) (A) (B) (B) (A) (B) (A)
                 (A) (B) (B) (A) (B) (A) (B) (A) (A) (B) (A) (B)
                 (A) (B) (B) (A) (A) (B) (A) (B) (A) (B) (A) (B)
                 (B) (A) (B) (A) (A) (A) (B) (B) (A) (B) (B) (A)
                 (A) (A) (B) (B) (A) (A)
 Beta  Orbitals:
       Occupied  (A) (A) (B) (A) (B) (A) (B) (A) (B) (A) (B) (A)
                 (B) (A) (B) (A) (B) (B) (A) (A) (B) (A) (A) (B)
                 (A) (B) (B) (A) (A) (B) (A)
       Virtual   (B) (B) (A) (A) (B) (A) (A) (B) (A) (B) (A) (A)
                 (B) (B) (A) (B) (B) (A) (A) (B) (A) (A) (B) (B)
                 (B) (A) (A) (B) (A) (B) (A) (B) (A) (B) (A) (A)
                 (B) (B) (A) (B) (A) (B) (A) (B) (A) (B) (A) (B)
                 (A) (B) (A) (B) (A) (B) (A) (B) (A) (B) (A) (B)
                 (A) (B) (B) (A) (A) (B) (A) (A) (B) (A) (B) (A)
                 (B) (A) (B) (B) (A) (A) (B) (A) (B) (A) (B) (B)
                 (A) (B) (A) (B) (A) (A) (B) (B) (A) (A) (B) (A)
                 (B) (B) (A) (B) (B) (A) (A) (A) (B) (A) (B) (A)
                 (B) (B) (A) (A) (B) (A) (B) (B) (A) (B) (A) (A)
                 (B) (B) (A) (A) (A) (B) (B) (A) (B) (B) (A) (B)
                 (A) (A) (B) (B) (A) (B) (A) (B) (A) (A) (B) (A)
                 (B) (A) (B) (B) (A) (A) (B) (A) (B) (A) (B) (A)
                 (B) (B) (A) (B) (A) (A) (A) (B) (B) (A) (B) (B)
                 (A) (A) (A) (B) (B) (A) (A)
 The electronic state is 2-B.
 Alpha  occ. eigenvalues -- -353.55562 -44.59474 -39.18665 -39.18655 -39.18489
 Alpha  occ. eigenvalues --  -11.44410 -11.44410 -11.38980 -11.38980  -5.87968
 Alpha  occ. eigenvalues --   -4.09171  -4.08360  -4.08342  -1.22211  -1.21076
 Alpha  occ. eigenvalues --   -1.06668  -1.03333  -1.03183  -1.02756  -1.02732
 Alpha  occ. eigenvalues --   -1.02388  -0.98977  -0.79007  -0.78403  -0.76582
 Alpha  occ. eigenvalues --   -0.76265  -0.69970  -0.69909  -0.66920  -0.66739
 Alpha  occ. eigenvalues --   -0.64224  -0.61644
 Alpha virt. eigenvalues --   -0.09906  -0.08471  -0.08026  -0.04067  -0.03515
 Alpha virt. eigenvalues --   -0.01267  -0.01047  -0.00805  -0.00499  -0.00452
 Alpha virt. eigenvalues --   -0.00251   0.00574   0.01603   0.03193   0.03207
 Alpha virt. eigenvalues --    0.05025   0.05385   0.06483   0.07058   0.08426
 Alpha virt. eigenvalues --    0.13436   0.13459   0.14468   0.14730   0.15756
 Alpha virt. eigenvalues --    0.18154   0.18686   0.19865   0.20391   0.20573
 Alpha virt. eigenvalues --    0.22194   0.22499   0.24714   0.24748   0.26435
 Alpha virt. eigenvalues --    0.28210   0.32538   0.32754   0.35092   0.37690
 Alpha virt. eigenvalues --    0.38720   0.40232   0.42316   0.42611   0.45315
 Alpha virt. eigenvalues --    0.46325   0.50142   0.51072   0.59130   0.60127
 Alpha virt. eigenvalues --    0.61344   0.63927   0.65639   0.66735   0.67262
 Alpha virt. eigenvalues --    0.68083   0.70039   0.71342   0.72877   0.73040
 Alpha virt. eigenvalues --    0.74831   0.78036   0.78717   0.88264   0.90335
 Alpha virt. eigenvalues --    0.90573   0.99660   1.02040   1.08794   1.10870
 Alpha virt. eigenvalues --    1.19424   1.24705   1.33225   1.34563   1.44273
 Alpha virt. eigenvalues --    1.48420   1.49885   1.57152   1.57445   1.57513
 Alpha virt. eigenvalues --    1.62463   1.62796   1.63816   1.64352   1.65496
 Alpha virt. eigenvalues --    1.66096   1.69875   1.70899   1.73537   1.76762
 Alpha virt. eigenvalues --    1.79037   1.82081   1.85022   1.88222   1.90699
 Alpha virt. eigenvalues --    1.93958   1.95266   1.96729   1.97040   2.05922
 Alpha virt. eigenvalues --    2.06456   2.11061   2.15012   2.18466   2.19251
 Alpha virt. eigenvalues --    2.22428   2.23460   2.25964   2.26211   2.26887
 Alpha virt. eigenvalues --    2.37332   2.38118   2.40947   2.43386   2.47930
 Alpha virt. eigenvalues --    2.48671   2.62259   2.62738   2.63716   2.66761
 Alpha virt. eigenvalues --    2.70215   2.71131   2.72904   2.75175   2.75407
 Alpha virt. eigenvalues --    2.76888   2.77285   2.77735   2.79210   2.80823
 Alpha virt. eigenvalues --    2.81877   2.82840   2.90399   2.91309   2.99533
 Alpha virt. eigenvalues --    3.01301   3.16955   3.32900   3.45871   3.63120
 Alpha virt. eigenvalues --    3.92159   3.93827   4.02252   4.02308   4.02416
 Alpha virt. eigenvalues --    4.02511   4.36798   4.39902   4.52413   4.52413
 Alpha virt. eigenvalues --    4.53064   4.53376   4.57699   4.57822   4.73408
 Alpha virt. eigenvalues --    4.80852   8.39512   8.40595   8.48738   8.51788
 Alpha virt. eigenvalues --    8.77847  10.91716  10.95111  11.19771  24.79071
 Alpha virt. eigenvalues --   24.80036  24.93762  24.93942  35.65077  45.92552
 Alpha virt. eigenvalues --   45.95082  46.13932 190.65394 986.24586
  Beta  occ. eigenvalues -- -353.55572 -44.59537 -39.18633 -39.18624 -39.18243
  Beta  occ. eigenvalues --  -11.42914 -11.42913 -11.39042 -11.39042  -5.88105
  Beta  occ. eigenvalues --   -4.08555  -4.08540  -4.08189  -1.18588  -1.17833
  Beta  occ. eigenvalues --   -1.04295  -1.03094  -1.02874  -1.02868  -1.02768
  Beta  occ. eigenvalues --   -0.99230  -0.97290  -0.78048  -0.77499  -0.72721
  Beta  occ. eigenvalues --   -0.72428  -0.68851  -0.68757  -0.66452  -0.66245
  Beta  occ. eigenvalues --   -0.53103
  Beta virt. eigenvalues --   -0.23218  -0.09468  -0.09182  -0.08902  -0.03914
  Beta virt. eigenvalues --   -0.02350  -0.01183  -0.00986  -0.00773  -0.00396
  Beta virt. eigenvalues --   -0.00389   0.00460   0.00590   0.01652   0.03245
  Beta virt. eigenvalues --    0.03265   0.05001   0.05543   0.06458   0.08482
  Beta virt. eigenvalues --    0.09718   0.13611   0.13677   0.15088   0.15578
  Beta virt. eigenvalues --    0.16155   0.17862   0.19317   0.20171   0.20541
  Beta virt. eigenvalues --    0.20936   0.22720   0.22934   0.25051   0.25204
  Beta virt. eigenvalues --    0.27065   0.28712   0.32367   0.33029   0.35854
  Beta virt. eigenvalues --    0.37933   0.40109   0.40268   0.42524   0.45570
  Beta virt. eigenvalues --    0.46051   0.46696   0.50486   0.51346   0.59438
  Beta virt. eigenvalues --    0.61877   0.63465   0.65095   0.66982   0.67268
  Beta virt. eigenvalues --    0.68097   0.70558   0.70578   0.71710   0.72912
  Beta virt. eigenvalues --    0.73691   0.76019   0.78563   0.79034   0.89583
  Beta virt. eigenvalues --    0.90691   0.92207   1.01071   1.03689   1.10320
  Beta virt. eigenvalues --    1.12239   1.19884   1.25132   1.33639   1.35506
  Beta virt. eigenvalues --    1.45901   1.50164   1.53197   1.57723   1.57772
  Beta virt. eigenvalues --    1.60004   1.63033   1.63251   1.64797   1.65538
  Beta virt. eigenvalues --    1.66631   1.67503   1.70234   1.71241   1.73881
  Beta virt. eigenvalues --    1.77762   1.79214   1.82808   1.85210   1.88732
  Beta virt. eigenvalues --    1.91702   1.94442   1.95076   1.96650   1.97515
  Beta virt. eigenvalues --    2.07143   2.07220   2.12062   2.15698   2.18418
  Beta virt. eigenvalues --    2.19162   2.22981   2.24061   2.26430   2.27478
  Beta virt. eigenvalues --    2.27481   2.38379   2.38999   2.41395   2.43876
  Beta virt. eigenvalues --    2.48723   2.49419   2.62654   2.63114   2.63819
  Beta virt. eigenvalues --    2.66880   2.71171   2.72273   2.73193   2.75433
  Beta virt. eigenvalues --    2.75595   2.77490   2.77607   2.77963   2.79893
  Beta virt. eigenvalues --    2.81433   2.82228   2.83453   2.90605   2.91513
  Beta virt. eigenvalues --    2.99890   3.01625   3.20140   3.33856   3.46960
  Beta virt. eigenvalues --    3.65931   3.93181   3.94839   4.02403   4.02429
  Beta virt. eigenvalues --    4.02490   4.02604   4.37405   4.40548   4.52303
  Beta virt. eigenvalues --    4.52304   4.52959   4.53272   4.57663   4.57813
  Beta virt. eigenvalues --    4.73281   4.81202   8.39446   8.40535   8.48805
  Beta virt. eigenvalues --    8.51852   8.78175  10.91561  10.94959  11.20325
  Beta virt. eigenvalues --   24.80063  24.81015  24.93780  24.93948  35.64989
  Beta virt. eigenvalues --   45.92515  45.95046  46.14291 190.65356 986.24529
          Condensed to atoms (all electrons):
               1          2          3          4          5          6
     1  Zn  29.638914  -0.060802  -0.073546  -0.024642  -0.032687   0.020895
     2  C   -0.060802   5.841731   0.170233   0.417523   0.433027  -0.056990
     3  C   -0.073546   0.170233   5.133654  -0.042968  -0.047639   0.419255
     4  H   -0.024642   0.417523  -0.042968   0.459227  -0.027483  -0.003127
     5  H   -0.032687   0.433027  -0.047639  -0.027483   0.459774  -0.003140
     6  H    0.020895  -0.056990   0.419255  -0.003127  -0.003140   0.464887
     7  H   -0.016599  -0.019638   0.410617  -0.006085   0.005194  -0.018499
     8  H   -0.012356  -0.032903   0.417843   0.005181  -0.006002  -0.018533
     9  C   -0.060802  -0.255045   0.001832   0.004056  -0.001139  -0.000310
    10  C   -0.073546   0.001832  -0.004862  -0.000271   0.001893  -0.000066
    11  H   -0.024642   0.004056  -0.000271  -0.000041   0.000023   0.000000
    12  H   -0.032687  -0.001139   0.001893   0.000023   0.000029   0.000000
    13  H    0.020895  -0.000310  -0.000066   0.000000   0.000000   0.000000
    14  H   -0.016599  -0.001530   0.000614   0.000022  -0.000001   0.000000
    15  H   -0.012356   0.001317  -0.000265  -0.000002  -0.000009   0.000000
               7          8          9         10         11         12
     1  Zn  -0.016599  -0.012356  -0.060802  -0.073546  -0.024642  -0.032687
     2  C   -0.019638  -0.032903  -0.255045   0.001832   0.004056  -0.001139
     3  C    0.410617   0.417843   0.001832  -0.004862  -0.000271   0.001893
     4  H   -0.006085   0.005181   0.004056  -0.000271  -0.000041   0.000023
     5  H    0.005194  -0.006002  -0.001139   0.001893   0.000023   0.000029
     6  H   -0.018499  -0.018533  -0.000310  -0.000066   0.000000   0.000000
     7  H    0.521233  -0.032685  -0.001530   0.000614   0.000022  -0.000001
     8  H   -0.032685   0.520739   0.001317  -0.000265  -0.000002  -0.000009
     9  C   -0.001530   0.001317   5.841731   0.170233   0.417523   0.433027
    10  C    0.000614  -0.000265   0.170233   5.133654  -0.042968  -0.047639
    11  H    0.000022  -0.000002   0.417523  -0.042968   0.459227  -0.027483
    12  H   -0.000001  -0.000009   0.433027  -0.047639  -0.027483   0.459774
    13  H    0.000000   0.000000  -0.056990   0.419255  -0.003127  -0.003140
    14  H   -0.000002   0.000000  -0.019638   0.410617  -0.006085   0.005194
    15  H    0.000000   0.000001  -0.032903   0.417843   0.005181  -0.006002
              13         14         15
     1  Zn   0.020895  -0.016599  -0.012356
     2  C   -0.000310  -0.001530   0.001317
     3  C   -0.000066   0.000614  -0.000265
     4  H    0.000000   0.000022  -0.000002
     5  H    0.000000  -0.000001  -0.000009
     6  H    0.000000   0.000000   0.000000
     7  H    0.000000  -0.000002   0.000000
     8  H    0.000000   0.000000   0.000001
     9  C   -0.056990  -0.019638  -0.032903
    10  C    0.419255   0.410617   0.417843
    11  H   -0.003127  -0.006085   0.005181
    12  H   -0.003140   0.005194  -0.006002
    13  H    0.464887  -0.018499  -0.018533
    14  H   -0.018499   0.521233  -0.032685
    15  H   -0.018533  -0.032685   0.520739
          Atomic-Atomic Spin Densities.
               1          2          3          4          5          6
     1  Zn  -0.494782   0.094758   0.024353   0.011752   0.012150  -0.008662
     2  C    0.094758   0.760845  -0.038392  -0.014524  -0.014396  -0.005892
     3  C    0.024353  -0.038392  -0.032731  -0.001059  -0.001256   0.018446
     4  H    0.011752  -0.014524  -0.001059  -0.018814   0.001902  -0.000744
     5  H    0.012150  -0.014396  -0.001256   0.001902  -0.019347  -0.000717
     6  H   -0.008662  -0.005892   0.018446  -0.000744  -0.000717   0.046646
     7  H    0.002643  -0.002664   0.001277   0.000314  -0.000035  -0.002156
     8  H    0.002613  -0.002849   0.001428  -0.000024   0.000330  -0.002182
     9  C    0.094758  -0.149513  -0.005131   0.001911   0.001964  -0.000679
    10  C    0.024353  -0.005131  -0.000971   0.000042  -0.000042  -0.000008
    11  H    0.011752   0.001911   0.000042  -0.000018  -0.000004   0.000001
    12  H    0.012150   0.001964  -0.000042  -0.000004  -0.000014   0.000002
    13  H   -0.008662  -0.000679  -0.000008   0.000001   0.000002   0.000000
    14  H    0.002643   0.000463   0.000020  -0.000003  -0.000006   0.000000
    15  H    0.002613   0.000497   0.000023  -0.000003  -0.000003   0.000000
               7          8          9         10         11         12
     1  Zn   0.002643   0.002613   0.094758   0.024353   0.011752   0.012150
     2  C   -0.002664  -0.002849  -0.149513  -0.005131   0.001911   0.001964
     3  C    0.001277   0.001428  -0.005131  -0.000971   0.000042  -0.000042
     4  H    0.000314  -0.000024   0.001911   0.000042  -0.000018  -0.000004
     5  H   -0.000035   0.000330   0.001964  -0.000042  -0.000004  -0.000014
     6  H   -0.002156  -0.002182  -0.000679  -0.000008   0.000001   0.000002
     7  H    0.004943   0.000225   0.000463   0.000020  -0.000003  -0.000006
     8  H    0.000225   0.005001   0.000497   0.000023  -0.000003  -0.000003
     9  C    0.000463   0.000497   0.760845  -0.038392  -0.014524  -0.014396
    10  C    0.000020   0.000023  -0.038392  -0.032731  -0.001059  -0.001256
    11  H   -0.000003  -0.000003  -0.014524  -0.001059  -0.018814   0.001902
    12  H   -0.000006  -0.000003  -0.014396  -0.001256   0.001902  -0.019347
    13  H    0.000000   0.000000  -0.005892   0.018446  -0.000744  -0.000717
    14  H    0.000000   0.000000  -0.002664   0.001277   0.000314  -0.000035
    15  H    0.000000  -0.000001  -0.002849   0.001428  -0.000024   0.000330
              13         14         15
     1  Zn  -0.008662   0.002643   0.002613
     2  C   -0.000679   0.000463   0.000497
     3  C   -0.000008   0.000020   0.000023
     4  H    0.000001  -0.000003  -0.000003
     5  H    0.000002  -0.000006  -0.000003
     6  H    0.000000   0.000000   0.000000
     7  H    0.000000   0.000000   0.000000
     8  H    0.000000   0.000000  -0.000001
     9  C   -0.005892  -0.002664  -0.002849
    10  C    0.018446   0.001277   0.001428
    11  H   -0.000744   0.000314  -0.000024
    12  H   -0.000717  -0.000035   0.000330
    13  H    0.046646  -0.002156  -0.002182
    14  H   -0.002156   0.004943   0.000225
    15  H   -0.002182   0.000225   0.005001
 Mulliken charges and spin densities:
               1          2
     1  Zn   0.760561  -0.215569
     2  C   -0.441362   0.626397
     3  C   -0.386325  -0.034001
     4  H    0.218587  -0.019270
     5  H    0.218160  -0.019473
     6  H    0.195627   0.044054
     7  H    0.157359   0.005022
     8  H    0.157673   0.005056
     9  C   -0.441362   0.626397
    10  C   -0.386325  -0.034001
    11  H    0.218587  -0.019270
    12  H    0.218160  -0.019473
    13  H    0.195627   0.044054
    14  H    0.157359   0.005022
    15  H    0.157673   0.005056
 Sum of Mulliken charges =   1.00000   1.00000
 Mulliken charges and spin densities with hydrogens summed into heavy atoms:
               1          2
     1  Zn   0.760561  -0.215569
     2  C   -0.004615   0.587654
     3  C    0.124334   0.020131
     9  C   -0.004615   0.587654
    10  C    0.124334   0.020131
 Electronic spatial extent (au):  <R**2>=            937.3346
 Charge=              1.0000 electrons
 Dipole moment (field-independent basis, Debye):
    X=              0.0000    Y=              0.0000    Z=              0.1737  Tot=              0.1737
 Quadrupole moment (field-independent basis, Debye-Ang):
   XX=            -35.0838   YY=            -19.7641   ZZ=            -36.8229
   XY=              3.6348   XZ=              0.0000   YZ=              0.0000
 Traceless Quadrupole moment (field-independent basis, Debye-Ang):
   XX=             -4.5269   YY=             10.7929   ZZ=             -6.2659
   XY=              3.6348   XZ=              0.0000   YZ=              0.0000
 Octapole moment (field-independent basis, Debye-Ang**2):
  XXX=              0.0000  YYY=              0.0000  ZZZ=              3.7808  XYY=              0.0000
  XXY=              0.0000  XXZ=              0.4357  XZZ=              0.0000  YZZ=              0.0000
  YYZ=             -0.0538  XYZ=             -1.1079
 Hexadecapole moment (field-independent basis, Debye-Ang**3):
 XXXX=           -227.3510 YYYY=           -757.1937 ZZZZ=            -66.4595 XXXY=           -141.5993
 XXXZ=              0.0000 YYYX=           -108.8261 YYYZ=              0.0000 ZZZX=              0.0000
 ZZZY=              0.0000 XXYY=           -171.5455 XXZZ=            -46.6978 YYZZ=           -163.7124
 XXYZ=              0.0000 YYXZ=              0.0000 ZZXY=            -51.9632
 N-N= 3.207392817687D+02 E-N=-5.254908293395D+03  KE= 1.935473917733D+03
 Symmetry A    KE= 1.417956956899D+03
 Symmetry B    KE= 5.175169608340D+02
                          Isotropic Fermi Contact Couplings
        Atom                 a.u.       MegaHertz       Gauss      10(-4) cm-1
     1  Zn(67)            -2.10504    -589.91000    -210.49455    -196.77280
     2  C(13)              0.14998     168.60219      60.16145      56.23964
     3  C(13)             -0.02140     -24.06218      -8.58598      -8.02628
     4  H(1)              -0.00158      -7.07998      -2.52631      -2.36163
     5  H(1)              -0.00159      -7.09241      -2.53075      -2.36577
     6  H(1)               0.02115      94.54092      33.73455      31.53546
     7  H(1)               0.00236      10.54032       3.76105       3.51587
     8  H(1)               0.00238      10.62363       3.79078       3.54366
     9  C(13)              0.14998     168.60219      60.16145      56.23964
    10  C(13)             -0.02140     -24.06218      -8.58598      -8.02628
    11  H(1)              -0.00158      -7.07998      -2.52631      -2.36163
    12  H(1)              -0.00159      -7.09241      -2.53075      -2.36577
    13  H(1)               0.02115      94.54092      33.73455      31.53546
    14  H(1)               0.00236      10.54032       3.76105       3.51587
    15  H(1)               0.00238      10.62363       3.79078       3.54366
 --------------------------------------------------------
       Center         ----  Spin Dipole Couplings  ----
                      3XX-RR        3YY-RR        3ZZ-RR
 --------------------------------------------------------
     1   Atom       -1.025957      2.053663     -1.027706
     2   Atom       -0.320528      0.641856     -0.321328
     3   Atom       -0.011368      0.028472     -0.017103
     4   Atom       -0.032078     -0.008381      0.040458
     5   Atom        0.004029     -0.008355      0.004327
     6   Atom        0.000305      0.005695     -0.006000
     7   Atom        0.010151     -0.003727     -0.006424
     8   Atom        0.003692     -0.003745      0.000052
     9   Atom       -0.320528      0.641856     -0.321328
    10   Atom       -0.011368      0.028472     -0.017103
    11   Atom       -0.032078     -0.008381      0.040458
    12   Atom        0.004029     -0.008355      0.004327
    13   Atom        0.000305      0.005695     -0.006000
    14   Atom        0.010151     -0.003727     -0.006424
    15   Atom        0.003692     -0.003745      0.000052
 --------------------------------------------------------
                        XY            XZ            YZ
 --------------------------------------------------------
     1   Atom       -0.006886      0.000000      0.000000
     2   Atom       -0.059618     -0.000187      0.014264
     3   Atom        0.028844     -0.001446     -0.006853
     4   Atom       -0.007670     -0.026594      0.015940
     5   Atom       -0.014034      0.044975     -0.010763
     6   Atom        0.001738     -0.001585     -0.000424
     7   Atom        0.004550      0.003882      0.001455
     8   Atom        0.003407     -0.008972     -0.003341
     9   Atom       -0.059618      0.000187     -0.014264
    10   Atom        0.028844      0.001446      0.006853
    11   Atom       -0.007670      0.026594     -0.015940
    12   Atom       -0.014034     -0.044975      0.010763
    13   Atom        0.001738      0.001585      0.000424
    14   Atom        0.004550     -0.003882     -0.001455
    15   Atom        0.003407      0.008972      0.003341
 --------------------------------------------------------


 ---------------------------------------------------------------------------------
              Anisotropic Spin Dipole Couplings in Principal Axis System
 ---------------------------------------------------------------------------------

       Atom             a.u.   MegaHertz   Gauss  10(-4) cm-1        Axes

              Baa    -1.0277   -34.378   -12.267   -11.467  0.0000  0.0000  1.0000
     1 Zn(67) Bbb    -1.0260   -34.320   -12.246   -11.448  1.0000  0.0022  0.0000
              Bcc     2.0537    68.697    24.513    22.915 -0.0022  1.0000  0.0000
 
              Baa    -0.3244   -43.528   -15.532   -14.519  0.9695  0.0633 -0.2367
     2 C(13)  Bbb    -0.3214   -43.125   -15.388   -14.385  0.2372  0.0003  0.9715
              Bcc     0.6457    86.653    30.920    28.904 -0.0616  0.9980  0.0147
 
              Baa    -0.0269    -3.609    -1.288    -1.204  0.8577 -0.4720 -0.2036
     3 C(13)  Bbb    -0.0174    -2.341    -0.835    -0.781  0.2310  0.0001  0.9729
              Bcc     0.0443     5.951     2.123     1.985  0.4592  0.8816 -0.1091
 
              Baa    -0.0410   -21.859    -7.800    -7.291  0.9521  0.0796  0.2954
     4 H(1)   Bbb    -0.0131    -7.001    -2.498    -2.335  0.0072  0.9594 -0.2819
              Bcc     0.0541    28.860    10.298     9.627 -0.3058  0.2705  0.9129
 
              Baa    -0.0410   -21.868    -7.803    -7.294  0.7169  0.0799 -0.6926
     5 H(1)   Bbb    -0.0131    -6.987    -2.493    -2.330  0.1333  0.9594  0.2486
              Bcc     0.0541    28.855    10.296     9.625  0.6843 -0.2706  0.6771
 
              Baa    -0.0064    -3.402    -1.214    -1.135  0.2306  0.0010  0.9730
     6 H(1)   Bbb     0.0001     0.058     0.021     0.019  0.9267 -0.3050 -0.2194
              Bcc     0.0063     3.344     1.193     1.115  0.2966  0.9524 -0.0712
 
              Baa    -0.0074    -3.930    -1.402    -1.311 -0.1692 -0.1762  0.9697
     7 H(1)   Bbb    -0.0051    -2.696    -0.962    -0.899 -0.3120  0.9429  0.1169
              Bcc     0.0124     6.626     2.364     2.210  0.9349  0.2828  0.2145
 
              Baa    -0.0074    -3.927    -1.401    -1.310  0.5868  0.1770  0.7901
     8 H(1)   Bbb    -0.0051    -2.702    -0.964    -0.901 -0.3312  0.9429  0.0348
              Bcc     0.0124     6.629     2.365     2.211  0.7389  0.2821 -0.6120
 
              Baa    -0.3244   -43.528   -15.532   -14.519  0.9695  0.0633  0.2367
     9 C(13)  Bbb    -0.3214   -43.125   -15.388   -14.385 -0.2372 -0.0003  0.9715
              Bcc     0.6457    86.653    30.920    28.904 -0.0616  0.9980 -0.0147
 
              Baa    -0.0269    -3.609    -1.288    -1.204  0.8577 -0.4720  0.2036
    10 C(13)  Bbb    -0.0174    -2.341    -0.835    -0.781 -0.2310 -0.0001  0.9729
              Bcc     0.0443     5.951     2.123     1.985  0.4592  0.8816  0.1091
 
              Baa    -0.0410   -21.859    -7.800    -7.291  0.9521  0.0796 -0.2954
    11 H(1)   Bbb    -0.0131    -7.001    -2.498    -2.335  0.0072  0.9594  0.2819
              Bcc     0.0541    28.860    10.298     9.627  0.3058 -0.2705  0.9129
 
              Baa    -0.0410   -21.868    -7.803    -7.294  0.7169  0.0799  0.6926
    12 H(1)   Bbb    -0.0131    -6.987    -2.493    -2.330  0.1333  0.9594 -0.2486
              Bcc     0.0541    28.855    10.296     9.625  0.6843 -0.2706 -0.6771
 
              Baa    -0.0064    -3.402    -1.214    -1.135 -0.2306 -0.0010  0.9730
    13 H(1)   Bbb     0.0001     0.058     0.021     0.019  0.9267 -0.3050  0.2194
              Bcc     0.0063     3.344     1.193     1.115  0.2966  0.9524  0.0712
 
              Baa    -0.0074    -3.930    -1.402    -1.311  0.1692  0.1762  0.9697
    14 H(1)   Bbb    -0.0051    -2.696    -0.962    -0.899 -0.3120  0.9429 -0.1169
              Bcc     0.0124     6.626     2.364     2.210  0.9349  0.2828 -0.2145
 
              Baa    -0.0074    -3.927    -1.401    -1.310 -0.5868 -0.1770  0.7901
    15 H(1)   Bbb    -0.0051    -2.702    -0.964    -0.901 -0.3312  0.9429 -0.0348
              Bcc     0.0124     6.629     2.365     2.211  0.7389  0.2821  0.6120
 

 ---------------------------------------------------------------------------------

 Range of M.O.s used for correlation:     1   206
 NBasis=   206 NAE=    32 NBE=    31 NFC=     0 NFV=     0
 NROrb=    206 NOA=    32 NOB=    31 NVA=   174 NVB=   175

 **** Warning!!: The largest alpha MO coefficient is  0.29455302D+02


 **** Warning!!: The largest beta MO coefficient is  0.29193463D+02

 Keep R1 and R2 ints in memory in symmetry-blocked form, NReq=341028379.
 Orbital symmetries:
 Alpha Orbitals:
       Occupied  (A) (A) (B) (A) (B) (B) (A) (A) (B) (A) (B) (B)
                 (A) (A) (B) (A) (B) (A) (B) (A) (B) (A) (A) (B)
                 (A) (B) (B) (A) (A) (B) (A) (B)
       Virtual   (A) (B) (A) (B) (A) (A) (A) (B) (A) (B) (A) (B)
                 (B) (A) (B) (B) (A) (A) (A) (B) (A) (B) (B) (B)
                 (A) (A) (B) (A) (B) (A) (A) (B) (B) (A) (A) (B)
                 (B) (A) (B) (A) (B) (A) (B) (A) (B) (A) (B) (A)
                 (B) (B) (A) (A) (B) (A) (B) (B) (A) (A) (B) (A)
                 (B) (B) (A) (A) (A) (B) (A) (B) (A) (B) (A) (B)
                 (A) (B) (B) (A) (A) (B) (B) (A) (B) (A) (B) (A)
                 (B) (A) (B) (A) (A) (B) (B) (A) (A) (B) (A) (B)
                 (B) (B) (A) (B) (A) (A) (A) (B) (A) (B) (A) (B)
                 (A) (B) (A) (B) (A) (B) (B) (A) (B) (A) (A) (B)
                 (B) (A) (A) (A) (B) (B) (A) (B) (B) (A) (B) (A)
                 (A) (B) (B) (A) (B) (A) (B) (A) (A) (B) (A) (B)
                 (A) (B) (B) (A) (A) (B) (A) (B) (A) (B) (A) (B)
                 (B) (A) (B) (A) (A) (A) (B) (B) (A) (B) (B) (A)
                 (A) (A) (B) (B) (A) (A)
 Beta  Orbitals:
       Occupied  (A) (A) (B) (A) (B) (A) (B) (A) (B) (A) (B) (A)
                 (B) (A) (B) (A) (B) (B) (A) (A) (B) (A) (A) (B)
                 (A) (B) (B) (A) (A) (B) (A)
       Virtual   (B) (B) (A) (A) (B) (A) (A) (B) (A) (B) (A) (A)
                 (B) (B) (A) (B) (B) (A) (A) (B) (A) (A) (B) (B)
                 (B) (A) (A) (B) (A) (B) (A) (B) (A) (B) (A) (A)
                 (B) (B) (A) (B) (A) (B) (A) (B) (A) (B) (A) (B)
                 (A) (B) (A) (B) (A) (B) (A) (B) (A) (B) (A) (B)
                 (A) (B) (B) (A) (A) (B) (A) (A) (B) (A) (B) (A)
                 (B) (A) (B) (B) (A) (A) (B) (A) (B) (A) (B) (B)
                 (A) (B) (A) (B) (A) (A) (B) (B) (A) (A) (B) (A)
                 (B) (B) (A) (B) (B) (A) (A) (A) (B) (A) (B) (A)
                 (B) (B) (A) (A) (B) (A) (B) (B) (A) (B) (A) (A)
                 (B) (B) (A) (A) (A) (B) (B) (A) (B) (B) (A) (B)
                 (A) (A) (B) (B) (A) (B) (A) (B) (A) (A) (B) (A)
                 (B) (A) (B) (B) (A) (A) (B) (A) (B) (A) (B) (A)
                 (B) (B) (A) (B) (A) (A) (A) (B) (B) (A) (B) (B)
                 (A) (A) (A) (B) (B) (A) (A)
    12 initial guesses have been made.
 Convergence on wavefunction:    0.001000000000000
 Iteration     1 Dimension    12 NMult     0 NNew     12
 CISAX will form    12 AO SS matrices at one time.
 Iteration     2 Dimension    24 NMult    12 NNew     12
 Iteration     3 Dimension    27 NMult    24 NNew      3
 Iteration     4 Dimension    30 NMult    27 NNew      3
 Iteration     5 Dimension    33 NMult    30 NNew      3
 Iteration     6 Dimension    36 NMult    33 NNew      3
 ***********************************************************************
 Stability analysis using <AA,BB:AA,BB> singles matrix:
 ***********************************************************************

 Eigenvectors of the stability matrix:
 
 Eigenvector   1:  2.027-B    Eigenvalue= 0.0239603  <S**2>=0.777
     25B -> 32B       -0.12245
     31B -> 32B        0.94551
 SavETr:  write IOETrn=   770 NScale= 10 NData=  16 NLR=1 NState=    1 LETran=      28.
 The wavefunction is stable under the perturbations considered.
 The wavefunction is already stable.

 **********************************************************************

            Population analysis using the SCF density.

 **********************************************************************

 Orbital symmetries:
 Alpha Orbitals:
       Occupied  (A) (A) (B) (A) (B) (B) (A) (A) (B) (A) (B) (B)
                 (A) (A) (B) (A) (B) (A) (B) (A) (B) (A) (A) (B)
                 (A) (B) (B) (A) (A) (B) (A) (B)
       Virtual   (A) (B) (A) (B) (A) (A) (A) (B) (A) (B) (A) (B)
                 (B) (A) (B) (B) (A) (A) (A) (B) (A) (B) (B) (B)
                 (A) (A) (B) (A) (B) (A) (A) (B) (B) (A) (A) (B)
                 (B) (A) (B) (A) (B) (A) (B) (A) (B) (A) (B) (A)
                 (B) (B) (A) (A) (B) (A) (B) (B) (A) (A) (B) (A)
                 (B) (B) (A) (A) (A) (B) (A) (B) (A) (B) (A) (B)
                 (A) (B) (B) (A) (A) (B) (B) (A) (B) (A) (B) (A)
                 (B) (A) (B) (A) (A) (B) (B) (A) (A) (B) (A) (B)
                 (B) (B) (A) (B) (A) (A) (A) (B) (A) (B) (A) (B)
                 (A) (B) (A) (B) (A) (B) (B) (A) (B) (A) (A) (B)
                 (B) (A) (A) (A) (B) (B) (A) (B) (B) (A) (B) (A)
                 (A) (B) (B) (A) (B) (A) (B) (A) (A) (B) (A) (B)
                 (A) (B) (B) (A) (A) (B) (A) (B) (A) (B) (A) (B)
                 (B) (A) (B) (A) (A) (A) (B) (B) (A) (B) (B) (A)
                 (A) (A) (B) (B) (A) (A)
 Beta  Orbitals:
       Occupied  (A) (A) (B) (A) (B) (A) (B) (A) (B) (A) (B) (A)
                 (B) (A) (B) (A) (B) (B) (A) (A) (B) (A) (A) (B)
                 (A) (B) (B) (A) (A) (B) (A)
       Virtual   (B) (B) (A) (A) (B) (A) (A) (B) (A) (B) (A) (A)
                 (B) (B) (A) (B) (B) (A) (A) (B) (A) (A) (B) (B)
                 (B) (A) (A) (B) (A) (B) (A) (B) (A) (B) (A) (A)
                 (B) (B) (A) (B) (A) (B) (A) (B) (A) (B) (A) (B)
                 (A) (B) (A) (B) (A) (B) (A) (B) (A) (B) (A) (B)
                 (A) (B) (B) (A) (A) (B) (A) (A) (B) (A) (B) (A)
                 (B) (A) (B) (B) (A) (A) (B) (A) (B) (A) (B) (B)
                 (A) (B) (A) (B) (A) (A) (B) (B) (A) (A) (B) (A)
                 (B) (B) (A) (B) (B) (A) (A) (A) (B) (A) (B) (A)
                 (B) (B) (A) (A) (B) (A) (B) (B) (A) (B) (A) (A)
                 (B) (B) (A) (A) (A) (B) (B) (A) (B) (B) (A) (B)
                 (A) (A) (B) (B) (A) (B) (A) (B) (A) (A) (B) (A)
                 (B) (A) (B) (B) (A) (A) (B) (A) (B) (A) (B) (A)
                 (B) (B) (A) (B) (A) (A) (A) (B) (B) (A) (B) (B)
                 (A) (A) (A) (B) (B) (A) (A)
 The electronic state is 2-B.
 Alpha  occ. eigenvalues -- -353.55562 -44.59474 -39.18665 -39.18655 -39.18489
 Alpha  occ. eigenvalues --  -11.44410 -11.44410 -11.38980 -11.38980  -5.87968
 Alpha  occ. eigenvalues --   -4.09171  -4.08360  -4.08342  -1.22211  -1.21076
 Alpha  occ. eigenvalues --   -1.06668  -1.03333  -1.03183  -1.02756  -1.02732
 Alpha  occ. eigenvalues --   -1.02388  -0.98977  -0.79007  -0.78403  -0.76582
 Alpha  occ. eigenvalues --   -0.76265  -0.69970  -0.69909  -0.66920  -0.66739
 Alpha  occ. eigenvalues --   -0.64224  -0.61644
 Alpha virt. eigenvalues --   -0.09906  -0.08471  -0.08026  -0.04067  -0.03515
 Alpha virt. eigenvalues --   -0.01267  -0.01047  -0.00805  -0.00499  -0.00452
 Alpha virt. eigenvalues --   -0.00251   0.00574   0.01603   0.03193   0.03207
 Alpha virt. eigenvalues --    0.05025   0.05385   0.06483   0.07058   0.08426
 Alpha virt. eigenvalues --    0.13436   0.13459   0.14468   0.14730   0.15756
 Alpha virt. eigenvalues --    0.18154   0.18686   0.19865   0.20391   0.20573
 Alpha virt. eigenvalues --    0.22194   0.22499   0.24714   0.24748   0.26435
 Alpha virt. eigenvalues --    0.28210   0.32538   0.32754   0.35092   0.37690
 Alpha virt. eigenvalues --    0.38720   0.40232   0.42316   0.42611   0.45315
 Alpha virt. eigenvalues --    0.46325   0.50142   0.51072   0.59130   0.60127
 Alpha virt. eigenvalues --    0.61344   0.63927   0.65639   0.66735   0.67262
 Alpha virt. eigenvalues --    0.68083   0.70039   0.71342   0.72877   0.73040
 Alpha virt. eigenvalues --    0.74831   0.78036   0.78717   0.88264   0.90335
 Alpha virt. eigenvalues --    0.90573   0.99660   1.02040   1.08794   1.10870
 Alpha virt. eigenvalues --    1.19424   1.24705   1.33225   1.34563   1.44273
 Alpha virt. eigenvalues --    1.48420   1.49885   1.57152   1.57445   1.57513
 Alpha virt. eigenvalues --    1.62463   1.62796   1.63816   1.64352   1.65496
 Alpha virt. eigenvalues --    1.66096   1.69875   1.70899   1.73537   1.76762
 Alpha virt. eigenvalues --    1.79037   1.82081   1.85022   1.88222   1.90699
 Alpha virt. eigenvalues --    1.93958   1.95266   1.96729   1.97040   2.05922
 Alpha virt. eigenvalues --    2.06456   2.11061   2.15012   2.18466   2.19251
 Alpha virt. eigenvalues --    2.22428   2.23460   2.25964   2.26211   2.26887
 Alpha virt. eigenvalues --    2.37332   2.38118   2.40947   2.43386   2.47930
 Alpha virt. eigenvalues --    2.48671   2.62259   2.62738   2.63716   2.66761
 Alpha virt. eigenvalues --    2.70215   2.71131   2.72904   2.75175   2.75407
 Alpha virt. eigenvalues --    2.76888   2.77285   2.77735   2.79210   2.80823
 Alpha virt. eigenvalues --    2.81877   2.82840   2.90399   2.91309   2.99533
 Alpha virt. eigenvalues --    3.01301   3.16955   3.32900   3.45871   3.63120
 Alpha virt. eigenvalues --    3.92159   3.93827   4.02252   4.02308   4.02416
 Alpha virt. eigenvalues --    4.02511   4.36798   4.39902   4.52413   4.52413
 Alpha virt. eigenvalues --    4.53064   4.53376   4.57699   4.57822   4.73408
 Alpha virt. eigenvalues --    4.80852   8.39512   8.40595   8.48738   8.51788
 Alpha virt. eigenvalues --    8.77847  10.91716  10.95111  11.19771  24.79071
 Alpha virt. eigenvalues --   24.80036  24.93762  24.93942  35.65077  45.92552
 Alpha virt. eigenvalues --   45.95082  46.13932 190.65394 986.24586
  Beta  occ. eigenvalues -- -353.55572 -44.59537 -39.18633 -39.18624 -39.18243
  Beta  occ. eigenvalues --  -11.42914 -11.42913 -11.39042 -11.39042  -5.88105
  Beta  occ. eigenvalues --   -4.08555  -4.08540  -4.08189  -1.18588  -1.17833
  Beta  occ. eigenvalues --   -1.04295  -1.03094  -1.02874  -1.02868  -1.02768
  Beta  occ. eigenvalues --   -0.99230  -0.97290  -0.78048  -0.77499  -0.72721
  Beta  occ. eigenvalues --   -0.72428  -0.68851  -0.68757  -0.66452  -0.66245
  Beta  occ. eigenvalues --   -0.53103
  Beta virt. eigenvalues --   -0.23218  -0.09468  -0.09182  -0.08902  -0.03914
  Beta virt. eigenvalues --   -0.02350  -0.01183  -0.00986  -0.00773  -0.00396
  Beta virt. eigenvalues --   -0.00389   0.00460   0.00590   0.01652   0.03245
  Beta virt. eigenvalues --    0.03265   0.05001   0.05543   0.06458   0.08482
  Beta virt. eigenvalues --    0.09718   0.13611   0.13677   0.15088   0.15578
  Beta virt. eigenvalues --    0.16155   0.17862   0.19317   0.20171   0.20541
  Beta virt. eigenvalues --    0.20936   0.22720   0.22934   0.25051   0.25204
  Beta virt. eigenvalues --    0.27065   0.28712   0.32367   0.33029   0.35854
  Beta virt. eigenvalues --    0.37933   0.40109   0.40268   0.42524   0.45570
  Beta virt. eigenvalues --    0.46051   0.46696   0.50486   0.51346   0.59438
  Beta virt. eigenvalues --    0.61877   0.63465   0.65095   0.66982   0.67268
  Beta virt. eigenvalues --    0.68097   0.70558   0.70578   0.71710   0.72912
  Beta virt. eigenvalues --    0.73691   0.76019   0.78563   0.79034   0.89583
  Beta virt. eigenvalues --    0.90691   0.92207   1.01071   1.03689   1.10320
  Beta virt. eigenvalues --    1.12239   1.19884   1.25132   1.33639   1.35506
  Beta virt. eigenvalues --    1.45901   1.50164   1.53197   1.57723   1.57772
  Beta virt. eigenvalues --    1.60004   1.63033   1.63251   1.64797   1.65538
  Beta virt. eigenvalues --    1.66631   1.67503   1.70234   1.71241   1.73881
  Beta virt. eigenvalues --    1.77762   1.79214   1.82808   1.85210   1.88732
  Beta virt. eigenvalues --    1.91702   1.94442   1.95076   1.96650   1.97515
  Beta virt. eigenvalues --    2.07143   2.07220   2.12062   2.15698   2.18418
  Beta virt. eigenvalues --    2.19162   2.22981   2.24061   2.26430   2.27478
  Beta virt. eigenvalues --    2.27481   2.38379   2.38999   2.41395   2.43876
  Beta virt. eigenvalues --    2.48723   2.49419   2.62654   2.63114   2.63819
  Beta virt. eigenvalues --    2.66880   2.71171   2.72273   2.73193   2.75433
  Beta virt. eigenvalues --    2.75595   2.77490   2.77607   2.77963   2.79893
  Beta virt. eigenvalues --    2.81433   2.82228   2.83453   2.90605   2.91513
  Beta virt. eigenvalues --    2.99890   3.01625   3.20140   3.33856   3.46960
  Beta virt. eigenvalues --    3.65931   3.93181   3.94839   4.02403   4.02429
  Beta virt. eigenvalues --    4.02490   4.02604   4.37405   4.40548   4.52303
  Beta virt. eigenvalues --    4.52304   4.52959   4.53272   4.57663   4.57813
  Beta virt. eigenvalues --    4.73281   4.81202   8.39446   8.40535   8.48805
  Beta virt. eigenvalues --    8.51852   8.78175  10.91561  10.94959  11.20325
  Beta virt. eigenvalues --   24.80063  24.81015  24.93780  24.93948  35.64989
  Beta virt. eigenvalues --   45.92515  45.95046  46.14291 190.65356 986.24529
          Condensed to atoms (all electrons):
               1          2          3          4          5          6
     1  Zn  29.638914  -0.060802  -0.073546  -0.024642  -0.032687   0.020895
     2  C   -0.060802   5.841731   0.170233   0.417523   0.433027  -0.056990
     3  C   -0.073546   0.170233   5.133654  -0.042968  -0.047639   0.419255
     4  H   -0.024642   0.417523  -0.042968   0.459227  -0.027483  -0.003127
     5  H   -0.032687   0.433027  -0.047639  -0.027483   0.459774  -0.003140
     6  H    0.020895  -0.056990   0.419255  -0.003127  -0.003140   0.464887
     7  H   -0.016599  -0.019638   0.410617  -0.006085   0.005194  -0.018499
     8  H   -0.012356  -0.032903   0.417843   0.005181  -0.006002  -0.018533
     9  C   -0.060802  -0.255045   0.001832   0.004056  -0.001139  -0.000310
    10  C   -0.073546   0.001832  -0.004862  -0.000271   0.001893  -0.000066
    11  H   -0.024642   0.004056  -0.000271  -0.000041   0.000023   0.000000
    12  H   -0.032687  -0.001139   0.001893   0.000023   0.000029   0.000000
    13  H    0.020895  -0.000310  -0.000066   0.000000   0.000000   0.000000
    14  H   -0.016599  -0.001530   0.000614   0.000022  -0.000001   0.000000
    15  H   -0.012356   0.001317  -0.000265  -0.000002  -0.000009   0.000000
               7          8          9         10         11         12
     1  Zn  -0.016599  -0.012356  -0.060802  -0.073546  -0.024642  -0.032687
     2  C   -0.019638  -0.032903  -0.255045   0.001832   0.004056  -0.001139
     3  C    0.410617   0.417843   0.001832  -0.004862  -0.000271   0.001893
     4  H   -0.006085   0.005181   0.004056  -0.000271  -0.000041   0.000023
     5  H    0.005194  -0.006002  -0.001139   0.001893   0.000023   0.000029
     6  H   -0.018499  -0.018533  -0.000310  -0.000066   0.000000   0.000000
     7  H    0.521233  -0.032685  -0.001530   0.000614   0.000022  -0.000001
     8  H   -0.032685   0.520739   0.001317  -0.000265  -0.000002  -0.000009
     9  C   -0.001530   0.001317   5.841731   0.170233   0.417523   0.433027
    10  C    0.000614  -0.000265   0.170233   5.133654  -0.042968  -0.047639
    11  H    0.000022  -0.000002   0.417523  -0.042968   0.459227  -0.027483
    12  H   -0.000001  -0.000009   0.433027  -0.047639  -0.027483   0.459774
    13  H    0.000000   0.000000  -0.056990   0.419255  -0.003127  -0.003140
    14  H   -0.000002   0.000000  -0.019638   0.410617  -0.006085   0.005194
    15  H    0.000000   0.000001  -0.032903   0.417843   0.005181  -0.006002
              13         14         15
     1  Zn   0.020895  -0.016599  -0.012356
     2  C   -0.000310  -0.001530   0.001317
     3  C   -0.000066   0.000614  -0.000265
     4  H    0.000000   0.000022  -0.000002
     5  H    0.000000  -0.000001  -0.000009
     6  H    0.000000   0.000000   0.000000
     7  H    0.000000  -0.000002   0.000000
     8  H    0.000000   0.000000   0.000001
     9  C   -0.056990  -0.019638  -0.032903
    10  C    0.419255   0.410617   0.417843
    11  H   -0.003127  -0.006085   0.005181
    12  H   -0.003140   0.005194  -0.006002
    13  H    0.464887  -0.018499  -0.018533
    14  H   -0.018499   0.521233  -0.032685
    15  H   -0.018533  -0.032685   0.520739
          Atomic-Atomic Spin Densities.
               1          2          3          4          5          6
     1  Zn  -0.494782   0.094758   0.024353   0.011752   0.012150  -0.008662
     2  C    0.094758   0.760845  -0.038392  -0.014524  -0.014396  -0.005892
     3  C    0.024353  -0.038392  -0.032731  -0.001059  -0.001256   0.018446
     4  H    0.011752  -0.014524  -0.001059  -0.018814   0.001902  -0.000744
     5  H    0.012150  -0.014396  -0.001256   0.001902  -0.019347  -0.000717
     6  H   -0.008662  -0.005892   0.018446  -0.000744  -0.000717   0.046646
     7  H    0.002643  -0.002664   0.001277   0.000314  -0.000035  -0.002156
     8  H    0.002613  -0.002849   0.001428  -0.000024   0.000330  -0.002182
     9  C    0.094758  -0.149513  -0.005131   0.001911   0.001964  -0.000679
    10  C    0.024353  -0.005131  -0.000971   0.000042  -0.000042  -0.000008
    11  H    0.011752   0.001911   0.000042  -0.000018  -0.000004   0.000001
    12  H    0.012150   0.001964  -0.000042  -0.000004  -0.000014   0.000002
    13  H   -0.008662  -0.000679  -0.000008   0.000001   0.000002   0.000000
    14  H    0.002643   0.000463   0.000020  -0.000003  -0.000006   0.000000
    15  H    0.002613   0.000497   0.000023  -0.000003  -0.000003   0.000000
               7          8          9         10         11         12
     1  Zn   0.002643   0.002613   0.094758   0.024353   0.011752   0.012150
     2  C   -0.002664  -0.002849  -0.149513  -0.005131   0.001911   0.001964
     3  C    0.001277   0.001428  -0.005131  -0.000971   0.000042  -0.000042
     4  H    0.000314  -0.000024   0.001911   0.000042  -0.000018  -0.000004
     5  H   -0.000035   0.000330   0.001964  -0.000042  -0.000004  -0.000014
     6  H   -0.002156  -0.002182  -0.000679  -0.000008   0.000001   0.000002
     7  H    0.004943   0.000225   0.000463   0.000020  -0.000003  -0.000006
     8  H    0.000225   0.005001   0.000497   0.000023  -0.000003  -0.000003
     9  C    0.000463   0.000497   0.760845  -0.038392  -0.014524  -0.014396
    10  C    0.000020   0.000023  -0.038392  -0.032731  -0.001059  -0.001256
    11  H   -0.000003  -0.000003  -0.014524  -0.001059  -0.018814   0.001902
    12  H   -0.000006  -0.000003  -0.014396  -0.001256   0.001902  -0.019347
    13  H    0.000000   0.000000  -0.005892   0.018446  -0.000744  -0.000717
    14  H    0.000000   0.000000  -0.002664   0.001277   0.000314  -0.000035
    15  H    0.000000  -0.000001  -0.002849   0.001428  -0.000024   0.000330
              13         14         15
     1  Zn  -0.008662   0.002643   0.002613
     2  C   -0.000679   0.000463   0.000497
     3  C   -0.000008   0.000020   0.000023
     4  H    0.000001  -0.000003  -0.000003
     5  H    0.000002  -0.000006  -0.000003
     6  H    0.000000   0.000000   0.000000
     7  H    0.000000   0.000000   0.000000
     8  H    0.000000   0.000000  -0.000001
     9  C   -0.005892  -0.002664  -0.002849
    10  C    0.018446   0.001277   0.001428
    11  H   -0.000744   0.000314  -0.000024
    12  H   -0.000717  -0.000035   0.000330
    13  H    0.046646  -0.002156  -0.002182
    14  H   -0.002156   0.004943   0.000225
    15  H   -0.002182   0.000225   0.005001
 Mulliken charges and spin densities:
               1          2
     1  Zn   0.760561  -0.215569
     2  C   -0.441362   0.626397
     3  C   -0.386325  -0.034001
     4  H    0.218587  -0.019270
     5  H    0.218160  -0.019473
     6  H    0.195627   0.044054
     7  H    0.157359   0.005022
     8  H    0.157673   0.005056
     9  C   -0.441362   0.626397
    10  C   -0.386325  -0.034001
    11  H    0.218587  -0.019270
    12  H    0.218160  -0.019473
    13  H    0.195627   0.044054
    14  H    0.157359   0.005022
    15  H    0.157673   0.005056
 Sum of Mulliken charges =   1.00000   1.00000
 Mulliken charges and spin densities with hydrogens summed into heavy atoms:
               1          2
     1  Zn   0.760561  -0.215569
     2  C   -0.004615   0.587654
     3  C    0.124334   0.020131
     9  C   -0.004615   0.587654
    10  C    0.124334   0.020131
 Electronic spatial extent (au):  <R**2>=            937.3346
 Charge=              1.0000 electrons
 Dipole moment (field-independent basis, Debye):
    X=              0.0000    Y=              0.0000    Z=              0.1737  Tot=              0.1737
 Quadrupole moment (field-independent basis, Debye-Ang):
   XX=            -35.0838   YY=            -19.7641   ZZ=            -36.8229
   XY=              3.6348   XZ=              0.0000   YZ=              0.0000
 Traceless Quadrupole moment (field-independent basis, Debye-Ang):
   XX=             -4.5269   YY=             10.7929   ZZ=             -6.2659
   XY=              3.6348   XZ=              0.0000   YZ=              0.0000
 Octapole moment (field-independent basis, Debye-Ang**2):
  XXX=              0.0000  YYY=              0.0000  ZZZ=              3.7808  XYY=              0.0000
  XXY=              0.0000  XXZ=              0.4357  XZZ=              0.0000  YZZ=              0.0000
  YYZ=             -0.0538  XYZ=             -1.1079
 Hexadecapole moment (field-independent basis, Debye-Ang**3):
 XXXX=           -227.3510 YYYY=           -757.1937 ZZZZ=            -66.4595 XXXY=           -141.5993
 XXXZ=              0.0000 YYYX=           -108.8261 YYYZ=              0.0000 ZZZX=              0.0000
 ZZZY=              0.0000 XXYY=           -171.5455 XXZZ=            -46.6978 YYZZ=           -163.7124
 XXYZ=              0.0000 YYXZ=              0.0000 ZZXY=            -51.9632
 N-N= 3.207392817687D+02 E-N=-5.254908293395D+03  KE= 1.935473917733D+03
 Symmetry A    KE= 1.417956956899D+03
 Symmetry B    KE= 5.175169608340D+02
                          Isotropic Fermi Contact Couplings
        Atom                 a.u.       MegaHertz       Gauss      10(-4) cm-1
     1  Zn(67)            -2.10504    -589.91000    -210.49455    -196.77280
     2  C(13)              0.14998     168.60219      60.16145      56.23964
     3  C(13)             -0.02140     -24.06218      -8.58598      -8.02628
     4  H(1)              -0.00158      -7.07998      -2.52631      -2.36163
     5  H(1)              -0.00159      -7.09241      -2.53075      -2.36577
     6  H(1)               0.02115      94.54092      33.73455      31.53546
     7  H(1)               0.00236      10.54032       3.76105       3.51587
     8  H(1)               0.00238      10.62363       3.79078       3.54366
     9  C(13)              0.14998     168.60219      60.16145      56.23964
    10  C(13)             -0.02140     -24.06218      -8.58598      -8.02628
    11  H(1)              -0.00158      -7.07998      -2.52631      -2.36163
    12  H(1)              -0.00159      -7.09241      -2.53075      -2.36577
    13  H(1)               0.02115      94.54092      33.73455      31.53546
    14  H(1)               0.00236      10.54032       3.76105       3.51587
    15  H(1)               0.00238      10.62363       3.79078       3.54366
 --------------------------------------------------------
       Center         ----  Spin Dipole Couplings  ----
                      3XX-RR        3YY-RR        3ZZ-RR
 --------------------------------------------------------
     1   Atom       -1.025957      2.053663     -1.027706
     2   Atom       -0.320528      0.641856     -0.321328
     3   Atom       -0.011368      0.028472     -0.017103
     4   Atom       -0.032078     -0.008381      0.040458
     5   Atom        0.004029     -0.008355      0.004327
     6   Atom        0.000305      0.005695     -0.006000
     7   Atom        0.010151     -0.003727     -0.006424
     8   Atom        0.003692     -0.003745      0.000052
     9   Atom       -0.320528      0.641856     -0.321328
    10   Atom       -0.011368      0.028472     -0.017103
    11   Atom       -0.032078     -0.008381      0.040458
    12   Atom        0.004029     -0.008355      0.004327
    13   Atom        0.000305      0.005695     -0.006000
    14   Atom        0.010151     -0.003727     -0.006424
    15   Atom        0.003692     -0.003745      0.000052
 --------------------------------------------------------
                        XY            XZ            YZ
 --------------------------------------------------------
     1   Atom       -0.006886      0.000000      0.000000
     2   Atom       -0.059618     -0.000187      0.014264
     3   Atom        0.028844     -0.001446     -0.006853
     4   Atom       -0.007670     -0.026594      0.015940
     5   Atom       -0.014034      0.044975     -0.010763
     6   Atom        0.001738     -0.001585     -0.000424
     7   Atom        0.004550      0.003882      0.001455
     8   Atom        0.003407     -0.008972     -0.003341
     9   Atom       -0.059618      0.000187     -0.014264
    10   Atom        0.028844      0.001446      0.006853
    11   Atom       -0.007670      0.026594     -0.015940
    12   Atom       -0.014034     -0.044975      0.010763
    13   Atom        0.001738      0.001585      0.000424
    14   Atom        0.004550     -0.003882     -0.001455
    15   Atom        0.003407      0.008972      0.003341
 --------------------------------------------------------


 ---------------------------------------------------------------------------------
              Anisotropic Spin Dipole Couplings in Principal Axis System
 ---------------------------------------------------------------------------------

       Atom             a.u.   MegaHertz   Gauss  10(-4) cm-1        Axes

              Baa    -1.0277   -34.378   -12.267   -11.467  0.0000  0.0000  1.0000
     1 Zn(67) Bbb    -1.0260   -34.320   -12.246   -11.448  1.0000  0.0022  0.0000
              Bcc     2.0537    68.697    24.513    22.915 -0.0022  1.0000  0.0000
 
              Baa    -0.3244   -43.528   -15.532   -14.519  0.9695  0.0633 -0.2367
     2 C(13)  Bbb    -0.3214   -43.125   -15.388   -14.385  0.2372  0.0003  0.9715
              Bcc     0.6457    86.653    30.920    28.904 -0.0616  0.9980  0.0147
 
              Baa    -0.0269    -3.609    -1.288    -1.204  0.8577 -0.4720 -0.2036
     3 C(13)  Bbb    -0.0174    -2.341    -0.835    -0.781  0.2310  0.0001  0.9729
              Bcc     0.0443     5.951     2.123     1.985  0.4592  0.8816 -0.1091
 
              Baa    -0.0410   -21.859    -7.800    -7.291  0.9521  0.0796  0.2954
     4 H(1)   Bbb    -0.0131    -7.001    -2.498    -2.335  0.0072  0.9594 -0.2819
              Bcc     0.0541    28.860    10.298     9.627 -0.3058  0.2705  0.9129
 
              Baa    -0.0410   -21.868    -7.803    -7.294  0.7169  0.0799 -0.6926
     5 H(1)   Bbb    -0.0131    -6.987    -2.493    -2.330  0.1333  0.9594  0.2486
              Bcc     0.0541    28.855    10.296     9.625  0.6843 -0.2706  0.6771
 
              Baa    -0.0064    -3.402    -1.214    -1.135  0.2306  0.0010  0.9730
     6 H(1)   Bbb     0.0001     0.058     0.021     0.019  0.9267 -0.3050 -0.2194
              Bcc     0.0063     3.344     1.193     1.115  0.2966  0.9524 -0.0712
 
              Baa    -0.0074    -3.930    -1.402    -1.311 -0.1692 -0.1762  0.9697
     7 H(1)   Bbb    -0.0051    -2.696    -0.962    -0.899 -0.3120  0.9429  0.1169
              Bcc     0.0124     6.626     2.364     2.210  0.9349  0.2828  0.2145
 
              Baa    -0.0074    -3.927    -1.401    -1.310  0.5868  0.1770  0.7901
     8 H(1)   Bbb    -0.0051    -2.702    -0.964    -0.901 -0.3312  0.9429  0.0348
              Bcc     0.0124     6.629     2.365     2.211  0.7389  0.2821 -0.6120
 
              Baa    -0.3244   -43.528   -15.532   -14.519  0.9695  0.0633  0.2367
     9 C(13)  Bbb    -0.3214   -43.125   -15.388   -14.385 -0.2372 -0.0003  0.9715
              Bcc     0.6457    86.653    30.920    28.904 -0.0616  0.9980 -0.0147
 
              Baa    -0.0269    -3.609    -1.288    -1.204  0.8577 -0.4720  0.2036
    10 C(13)  Bbb    -0.0174    -2.341    -0.835    -0.781 -0.2310 -0.0001  0.9729
              Bcc     0.0443     5.951     2.123     1.985  0.4592  0.8816  0.1091
 
              Baa    -0.0410   -21.859    -7.800    -7.291  0.9521  0.0796 -0.2954
    11 H(1)   Bbb    -0.0131    -7.001    -2.498    -2.335  0.0072  0.9594  0.2819
              Bcc     0.0541    28.860    10.298     9.627  0.3058 -0.2705  0.9129
 
              Baa    -0.0410   -21.868    -7.803    -7.294  0.7169  0.0799  0.6926
    12 H(1)   Bbb    -0.0131    -6.987    -2.493    -2.330  0.1333  0.9594 -0.2486
              Bcc     0.0541    28.855    10.296     9.625  0.6843 -0.2706 -0.6771
 
              Baa    -0.0064    -3.402    -1.214    -1.135 -0.2306 -0.0010  0.9730
    13 H(1)   Bbb     0.0001     0.058     0.021     0.019  0.9267 -0.3050  0.2194
              Bcc     0.0063     3.344     1.193     1.115  0.2966  0.9524  0.0712
 
              Baa    -0.0074    -3.930    -1.402    -1.311  0.1692  0.1762  0.9697
    14 H(1)   Bbb    -0.0051    -2.696    -0.962    -0.899 -0.3120  0.9429 -0.1169
              Bcc     0.0124     6.626     2.364     2.210  0.9349  0.2828 -0.2145
 
              Baa    -0.0074    -3.927    -1.401    -1.310 -0.5868 -0.1770  0.7901
    15 H(1)   Bbb    -0.0051    -2.702    -0.964    -0.901 -0.3312  0.9429 -0.0348
              Bcc     0.0124     6.629     2.365     2.211  0.7389  0.2821  0.6120
 

 ---------------------------------------------------------------------------------

 1\1\GINC-GAMBA\Stability\UHF\Gen\C4H10Zn1(1+,2)\IRIKURA\25-May-2017\0\
 \# HF/GEN geom=check guess=check scf=xqc stable=opt\\HF stabilization 
 to precede BEB step 5\\1,2\Zn,0,0.,0.,0.092059\C,0,0.,1.933945,0.09012
 7\C,0,1.360973,2.577345,-0.233751\H,0,-0.346594,2.294125,1.069841\H,0,
 -0.75069,2.294418,-0.628225\H,0,1.311324,3.675407,-0.22301\H,0,2.13492
 4,2.28887,0.488877\H,0,1.727459,2.287037,-1.226622\C,0,0.,-1.933945,0.
 090127\C,0,-1.360973,-2.577345,-0.233751\H,0,0.346594,-2.294125,1.0698
 41\H,0,0.75069,-2.294418,-0.628225\H,0,-1.311324,-3.675407,-0.22301\H,
 0,-2.134924,-2.28887,0.488877\H,0,-1.727459,-2.287037,-1.226622\\Versi
 on=ES64L-G09RevD.01\State=2-B\HF=-1934.7044299\S2=0.86033\S2-1=0.\S2A=
 0.751694\RMSD=8.042e-09\Dipole=0.,0.,0.0683286\Quadrupole=-3.3656515,8
 .0242276,-4.6585761,2.7023976,0.,0.\PG=C02 [C2(Zn1),X(C4H10)]\\@


 A SLIP OF THE FOOT YOU MAY SOON RECOVER, BUT A SLIP OF THE TONGUE
 YOU MAY NEVER GET OVER. -- BEN FRANKLIN
 Job cpu time:       0 days  0 hours  1 minutes 30.2 seconds.
 File lengths (MBytes):  RWF=     66 Int=      0 D2E=      0 Chk=      9 Scr=      1
 Normal termination of Gaussian 09 at Thu May 25 16:07:09 2017.
 Initial command:
 /usr/local/apps/g09/l1.exe "/wrk/irikura/Gau-4271.inp" -scrdir="/wrk/irikura/"
 Entering Link 1 = /usr/local/apps/g09/l1.exe PID=      4350.
  
 Copyright (c) 1988,1990,1992,1993,1995,1998,2003,2009,2013,
            Gaussian, Inc.  All Rights Reserved.
  
 This is part of the Gaussian(R) 09 program.  It is based on
 the Gaussian(R) 03 system (copyright 2003, Gaussian, Inc.),
 the Gaussian(R) 98 system (copyright 1998, Gaussian, Inc.),
 the Gaussian(R) 94 system (copyright 1995, Gaussian, Inc.),
 the Gaussian 92(TM) system (copyright 1992, Gaussian, Inc.),
 the Gaussian 90(TM) system (copyright 1990, Gaussian, Inc.),
 the Gaussian 88(TM) system (copyright 1988, Gaussian, Inc.),
 the Gaussian 86(TM) system (copyright 1986, Carnegie Mellon
 University), and the Gaussian 82(TM) system (copyright 1983,
 Carnegie Mellon University). Gaussian is a federally registered
 trademark of Gaussian, Inc.
  
 This software contains proprietary and confidential information,
 including trade secrets, belonging to Gaussian, Inc.
  
 This software is provided under written license and may be
 used, copied, transmitted, or stored only in accord with that
 written license.
  
 The following legend is applicable only to US Government
 contracts under FAR:
  
                    RESTRICTED RIGHTS LEGEND
  
 Use, reproduction and disclosure by the US Government is
 subject to restrictions as set forth in subparagraphs (a)
 and (c) of the Commercial Computer Software - Restricted
 Rights clause in FAR 52.227-19.
  
 Gaussian, Inc.
 340 Quinnipiac St., Bldg. 40, Wallingford CT 06492
  
  
 ---------------------------------------------------------------
 Warning -- This program may not be used in any manner that
 competes with the business of Gaussian, Inc. or will provide
 assistance to any competitor of Gaussian, Inc.  The licensee
 of this program is prohibited from giving any competitor of
 Gaussian, Inc. access to this program.  By using this program,
 the user acknowledges that Gaussian, Inc. is engaged in the
 business of creating and licensing software in the field of
 computational chemistry and represents and warrants to the
 licensee that it is not a competitor of Gaussian, Inc. and that
 it will not use this program in any manner prohibited above.
 ---------------------------------------------------------------
  

 Cite this work as:
 Gaussian 09, Revision D.01,
 M. J. Frisch, G. W. Trucks, H. B. Schlegel, G. E. Scuseria, 
 M. A. Robb, J. R. Cheeseman, G. Scalmani, V. Barone, B. Mennucci, 
 G. A. Petersson, H. Nakatsuji, M. Caricato, X. Li, H. P. Hratchian, 
 A. F. Izmaylov, J. Bloino, G. Zheng, J. L. Sonnenberg, M. Hada, 
 M. Ehara, K. Toyota, R. Fukuda, J. Hasegawa, M. Ishida, T. Nakajima, 
 Y. Honda, O. Kitao, H. Nakai, T. Vreven, J. A. Montgomery, Jr., 
 J. E. Peralta, F. Ogliaro, M. Bearpark, J. J. Heyd, E. Brothers, 
 K. N. Kudin, V. N. Staroverov, T. Keith, R. Kobayashi, J. Normand, 
 K. Raghavachari, A. Rendell, J. C. Burant, S. S. Iyengar, J. Tomasi, 
 M. Cossi, N. Rega, J. M. Millam, M. Klene, J. E. Knox, J. B. Cross, 
 V. Bakken, C. Adamo, J. Jaramillo, R. Gomperts, R. E. Stratmann, 
 O. Yazyev, A. J. Austin, R. Cammi, C. Pomelli, J. W. Ochterski, 
 R. L. Martin, K. Morokuma, V. G. Zakrzewski, G. A. Voth, 
 P. Salvador, J. J. Dannenberg, S. Dapprich, A. D. Daniels, 
 O. Farkas, J. B. Foresman, J. V. Ortiz, J. Cioslowski, 
 and D. J. Fox, Gaussian, Inc., Wallingford CT, 2013.
 
 ******************************************
 Gaussian 09:  ES64L-G09RevD.01 24-Apr-2013
                25-May-2017 
 ******************************************
 %chk=ZnEt2.chk
 %nprocs=6
 Will use up to    6 processors via shared memory.
 %mem=4000mw
 ----------------------------------------------------------------------
 # EPT(OVGF+P3,ReadOrbitals)/GEN gfinput geom=check guess=check scf=xqc
  pop(all,thresh=1)
 ----------------------------------------------------------------------
 1/29=2,38=1/1;
 2/12=2,40=1/2;
 3/5=7,11=9,14=-4,16=1,24=10,25=1,30=1,116=-2/1,2,3;
 4/5=1/1;
 5/5=2,8=3,13=1,38=6/2,8;
 8/6=4,9=120000,10=1/1,4;
 9/11=30100/8;
 6/7=2,8=2,9=2,10=2,87=-1,88=1/1;
 99/5=1,9=1/99;
 -----------------------------------------
 BEB step 5: cation EPT for VIE2 for ZnEt2
 -----------------------------------------
 Structure from the checkpoint file:  "ZnEt2.chk"
 Charge =  1 Multiplicity = 2
 Redundant internal coordinates found in file.
 Zn,0,0.,0.,0.092059
 C,0,0.,1.933945,0.090127
 C,0,1.360973,2.577345,-0.233751
 H,0,-0.346594,2.294125,1.069841
 H,0,-0.75069,2.294418,-0.628225
 H,0,1.311324,3.675407,-0.22301
 H,0,2.134924,2.28887,0.488877
 H,0,1.727459,2.287037,-1.226622
 C,0,0.,-1.933945,0.090127
 C,0,-1.360973,-2.577345,-0.233751
 H,0,0.346594,-2.294125,1.069841
 H,0,0.75069,-2.294418,-0.628225
 H,0,-1.311324,-3.675407,-0.22301
 H,0,-2.134924,-2.28887,0.488877
 H,0,-1.727459,-2.287037,-1.226622
 Recover connectivity data from disk.
                          Input orientation:                          
 ---------------------------------------------------------------------
 Center     Atomic      Atomic             Coordinates (Angstroms)
 Number     Number       Type             X           Y           Z
 ---------------------------------------------------------------------
      1         30           0        0.000000    0.000000    0.092059
      2          6           0        0.000000    1.933945    0.090127
      3          6           0        1.360973    2.577345   -0.233751
      4          1           0       -0.346594    2.294125    1.069841
      5          1           0       -0.750690    2.294418   -0.628225
      6          1           0        1.311324    3.675407   -0.223010
      7          1           0        2.134924    2.288870    0.488877
      8          1           0        1.727459    2.287037   -1.226622
      9          6           0        0.000000   -1.933945    0.090127
     10          6           0       -1.360973   -2.577345   -0.233751
     11          1           0        0.346594   -2.294125    1.069841
     12          1           0        0.750690   -2.294418   -0.628225
     13          1           0       -1.311324   -3.675407   -0.223010
     14          1           0       -2.134924   -2.288870    0.488877
     15          1           0       -1.727459   -2.287037   -1.226622
 ---------------------------------------------------------------------
                    Distance matrix (angstroms):
                    1          2          3          4          5
     1  Zn   0.000000
     2  C    1.933946   0.000000
     3  C    2.932764   1.539840   0.000000
     4  H    2.517776   1.099862   2.166876   0.000000
     5  H    2.519265   1.099775   2.166744   1.745486   0.000000
     6  H    3.915029   2.202343   1.099236   2.515571   2.514604
     7  H    3.155042   2.200653   1.097456   2.548623   3.094304
     8  H    3.154928   2.200595   1.097444   3.094429   2.549383
     9  C    1.933946   3.867890   4.723228   4.353911   4.354150
    10  C    2.932764   4.723228   5.829221   5.143883   4.925660
    11  H    2.517776   4.353911   5.143883   4.640318   5.014199
    12  H    2.519265   4.354150   4.925660   5.014199   4.828204
    13  H    3.915029   5.769095   6.799867   6.183646   6.009769
    14  H    3.155042   4.748586   6.035191   4.953735   4.916355
    15  H    3.154928   4.747066   5.846915   5.307313   4.722487
                    6          7          8          9         10
     6  H    0.000000
     7  H    1.762834   0.000000
     8  H    1.762945   1.763227   0.000000
     9  C    5.769095   4.748586   4.747066   0.000000
    10  C    6.799867   6.035191   5.846915   1.539840   0.000000
    11  H    6.183646   4.953735   5.307313   1.099862   2.166876
    12  H    6.009769   4.916355   4.722487   1.099775   2.166744
    13  H    7.804662   6.925028   6.766992   2.202343   1.099236
    14  H    6.925028   6.259976   6.228954   2.200653   1.097456
    15  H    6.766992   6.228954   5.732243   2.200595   1.097444
                   11         12         13         14         15
    11  H    0.000000
    12  H    1.745486   0.000000
    13  H    2.515571   2.514604   0.000000
    14  H    2.548623   3.094304   1.762834   0.000000
    15  H    3.094429   2.549383   1.762945   1.763227   0.000000
 Stoichiometry    C4H10Zn(1+,2)
 Framework group  C2[C2(Zn),X(C4H10)]
 Deg. of freedom    20
 Full point group                 C2      NOp   2
 Largest Abelian subgroup         C2      NOp   2
 Largest concise Abelian subgroup C2      NOp   2
                         Standard orientation:                         
 ---------------------------------------------------------------------
 Center     Atomic      Atomic             Coordinates (Angstroms)
 Number     Number       Type             X           Y           Z
 ---------------------------------------------------------------------
      1         30           0        0.000000    0.000000    0.092059
      2          6           0        0.000000    1.933945    0.090127
      3          6           0        1.360973    2.577345   -0.233751
      4          1           0       -0.346594    2.294125    1.069841
      5          1           0       -0.750690    2.294418   -0.628225
      6          1           0        1.311324    3.675407   -0.223010
      7          1           0        2.134924    2.288870    0.488877
      8          1           0        1.727459    2.287037   -1.226622
[...]
 .01 C3-p=0.01
 Beta  vir 98 OE=0.922 is Zn1-d=0.61 C3-s=0.38 C10-s=0.38 Zn1-s=0.28 C9-s=-0.26 C2-s=-0.26 C9-p=0.06 C2-p=0.06 H13-s=-0.05 H6-s=-0.05 H15-s=-0.04 H8-s=-0.04 H7-s=-0.04 H14-s=-0.04 C10-p=-0.01 C3-p=-0.0
 1
 Beta  vir 99 OE=1.011 is C9-s=0.45 C2-s=0.45 C3-s=0.20 C10-s=0.20 C3-p=-0.07 C10-p=-0.07 Zn1-d=0.05 H5-s=-0.03 H12-s=-0.03 C2-p=-0.03 C9-p=-0.03 H11-s=-0.02 H4-s=-0.02 H15-s=-0.02 H8-s=-0.02 H6-s=-0.0
 2 H13-s=-0.02 H14-s=-0.01 H7-s=-0.01 Zn1-s=-0.01
 Beta  vir 100 OE=1.037 is C2-s=0.57 C9-s=0.57 Zn1-p=-0.38 C10-d=0.06 C3-d=0.06 C2-d=0.06 C9-d=0.06 H4-s=-0.03 H11-s=-0.03 H5-s=-0.02 H12-s=-0.02 H15-p=0.02 H8-p=0.02 H7-p=0.02 H14-p=0.02 C10-s=0.02 C3
 -s=0.02 H6-p=0.02 H13-p=0.02 C10-p=-0.02 C3-p=-0.02 H6-s=-0.01 H13-s=-0.01
 Beta  vir 101 OE=1.103 is C9-d=0.14 C2-d=0.14 C3-d=0.11 C10-d=0.11 H4-p=0.07 H11-p=0.07 H5-p=0.05 H12-p=0.05 H13-p=0.04 H6-p=0.04 H7-p=0.03 H14-p=0.03 H15-p=0.03 H8-p=0.03 Zn1-p=0.01 C2-s=0.01 C9-s=0.
 01 C3-s=0.01 C10-s=0.01
 Beta  vir 102 OE=1.122 is C2-s=0.42 C9-s=0.42 Zn1-p=-0.36 C2-d=0.09 C9-d=0.09 C3-d=0.08 C10-d=0.08 H5-p=0.04 H12-p=0.04 H4-p=0.03 H11-p=0.03 H13-p=0.03 H6-p=0.03 H14-p=0.03 H7-p=0.03 H15-p=0.02 H8-p=0
 .02 H4-s=-0.01 H11-s=-0.01 C3-p=-0.01 C10-p=-0.01 H5-s=-0.01 H12-s=-0.01
 Beta  vir 103 OE=1.199 is C3-d=0.16 C10-d=0.16 Zn1-d=0.08 H6-p=0.08 H13-p=0.08 H8-p=0.05 H15-p=0.05 H14-p=0.04 H7-p=0.04 H5-p=0.04 H12-p=0.04 C2-d=0.03 C9-d=0.03 C3-p=0.03 C10-p=0.03 C2-p=0.01 C9-p=0.
 01
 Beta  vir 104 OE=1.251 is C3-d=0.16 C10-d=0.16 H14-p=0.07 H7-p=0.07 H15-p=0.06 H8-p=0.06 H4-p=0.05 H11-p=0.05 Zn1-d=0.04 C9-d=0.04 C2-d=0.04 C9-p=0.03 C2-p=0.03 H12-p=0.03 H5-p=0.03 H13-p=0.03 H6-p=0.
 03
 Beta  vir 105 OE=1.336 is H7-p=0.09 H14-p=0.09 H5-p=0.09 H12-p=0.09 H8-p=0.08 H15-p=0.08 H11-p=0.08 H4-p=0.08 C3-d=0.07 C10-d=0.07 C9-d=0.06 C2-d=0.06 C2-p=0.02 C9-p=0.02 C3-p=0.01 C10-p=0.01
 Beta  vir 106 OE=1.355 is H4-p=0.13 H11-p=0.13 C2-d=0.11 C9-d=0.11 H12-p=0.10 H5-p=0.10 H8-p=0.06 H15-p=0.06 Zn1-d=0.04 H7-p=0.04 H14-p=0.04 C3-d=0.02 C10-d=0.02
 Beta  vir 107 OE=1.459 is C2-d=0.16 C9-d=0.16 H13-p=0.12 H6-p=0.12 C3-d=0.06 C10-d=0.06 H4-p=0.04 H11-p=0.04 H12-p=0.04 H5-p=0.04 H14-p=0.03 H7-p=0.03 C9-p=0.02 C2-p=0.02 H15-p=0.02 H8-p=0.02
 Beta  vir 108 OE=1.502 is C2-d=0.21 C9-d=0.21 C10-d=0.08 C3-d=0.08 H13-p=0.07 H6-p=0.07 H12-p=0.05 H5-p=0.05 C9-p=0.03 C2-p=0.03 H11-p=0.03 H4-p=0.03 H8-p=0.02 H15-p=0.02 H6-s=0.01 H13-s=0.01 Zn1-d=0.
 01
 Beta  vir 109 OE=1.532 is C9-d=0.25 C2-d=0.25 Zn1-d=0.15 C9-s=0.04 C2-s=0.04 H4-p=0.03 H11-p=0.03 H12-p=0.03 H5-p=0.03 C10-d=0.03 C3-d=0.03 Zn1-s=-0.02 H13-p=0.02 H6-p=0.02
 Beta  vir 110 OE=1.577 is H15-p=0.17 H8-p=0.17 H6-p=0.16 H13-p=0.16 H7-p=0.15 H14-p=0.15 Zn1-d=0.01
 Beta  vir 111 OE=1.578 is H7-p=0.18 H14-p=0.18 H15-p=0.16 H8-p=0.16 H6-p=0.16 H13-p=0.16
 Beta  vir 112 OE=1.600 is C9-d=0.26 C2-d=0.26 C2-s=0.06 C9-s=0.06 Zn1-p=0.05 C10-d=0.04 C3-d=0.04 H14-p=0.04 H7-p=0.04 H15-p=0.03 H8-p=0.03 H6-p=0.02 H13-p=0.02 H5-p=0.02 H12-p=0.02 H4-p=0.02 H11-p=0.
 02 C9-p=-0.02 C2-p=-0.02 C3-s=-0.02 C10-s=-0.02
 Beta  vir 113 OE=1.630 is C3-d=0.22 C10-d=0.22 C2-d=0.08 C9-d=0.08 H7-s=0.04 H14-s=0.04 H8-s=0.03 H15-s=0.03 H7-p=0.03 H14-p=0.03 H13-p=0.03 H6-p=0.03 H15-p=0.03 H8-p=0.03 H4-p=0.02 H11-p=0.02 H5-p=0.
 02 H12-p=0.02 C3-p=-0.02 C10-p=-0.02
 Beta  vir 114 OE=1.633 is C3-d=0.16 C10-d=0.16 C9-d=0.14 C2-d=0.14 H11-p=0.03 H4-p=0.03 H7-s=0.03 H14-s=0.03 H5-p=0.03 H12-p=0.03 H7-p=0.02 H14-p=0.02 H15-s=0.02 H8-s=0.02 H15-p=0.02 H8-p=0.02 H13-p=0
 .02 H6-p=0.02 H12-s=0.02 H5-s=0.02 H4-s=0.02 H11-s=0.02
 Beta  vir 115 OE=1.648 is C2-d=0.18 C9-d=0.18 C3-d=0.13 C10-d=0.13 Zn1-d=0.05 H7-p=0.04 H14-p=0.04 H4-s=0.03 H11-s=0.03 H11-p=0.03 H4-p=0.03 H12-p=0.02 H5-p=0.02 H15-s=0.02 H8-s=0.02 H8-p=0.02 H15-p=0
 .02 H6-p=0.02 H13-p=0.02 C9-p=-0.01 C2-p=-0.01
 Beta  vir 116 OE=1.655 is C9-d=0.17 C2-d=0.17 C10-d=0.16 C3-d=0.16 H15-p=0.03 H8-p=0.03 H6-p=0.03 H13-p=0.03 Zn1-d=0.03 H12-p=0.02 H5-p=0.02 H5-s=0.02 H12-s=0.02 H14-p=0.02 H7-p=0.02 H14-s=0.01 H7-s=0
 .01
 Beta  vir 117 OE=1.666 is C3-d=0.16 C10-d=0.16 C2-d=0.15 C9-d=0.15 H13-p=0.06 H6-p=0.06 H15-p=0.04 H8-p=0.04 C9-s=-0.03 C2-s=-0.03 C3-s=0.02 C10-s=0.02 H14-p=0.02 H7-p=0.02 H14-s=0.02 H7-s=0.02 Zn1-p=
 0.02 H5-s=0.02 H12-s=0.02 H12-p=0.01 H5-p=0.01
 Beta  vir 118 OE=1.675 is C9-d=0.24 C2-d=0.24 C3-d=0.09 C10-d=0.09 H11-s=0.04 H4-s=0.04 H7-p=0.03 H14-p=0.03 H13-p=0.03 H6-p=0.03 H4-p=0.03 H11-p=0.03 H15-p=0.03 H8-p=0.03 C2-p=-0.02 C9-p=-0.02 H12-s=
 0.02 H5-s=0.02 H5-p=0.02 H12-p=0.02 H8-s=0.01 H15-s=0.01
 Beta  vir 119 OE=1.702 is C10-d=0.23 C3-d=0.23 H13-p=0.06 H6-p=0.06 H6-s=0.05 H13-s=0.05 H7-p=0.03 H14-p=0.03 H15-p=0.03 H8-p=0.03 H4-p=0.03 H11-p=0.03 C2-d=0.02 C9-d=0.02 H5-p=0.02 H12-p=0.02 C3-p=-0
 .01 C10-p=-0.01 Zn1-p=-0.01 H8-s=0.01 H15-s=0.01
 Beta  vir 120 OE=1.712 is C10-d=0.16 C3-d=0.16 H6-p=0.09 H13-p=0.09 H12-p=0.09 H5-p=0.09 H8-p=0.05 H15-p=0.05 H14-p=0.03 H7-p=0.03 H13-s=0.03 H6-s=0.03 H4-p=0.03 H11-p=0.03 C3-p=-0.01 C10-p=-0.01 C9-d
 =0.01 C2-d=0.01
 Beta  vir 121 OE=1.739 is H4-p=0.23 H11-p=0.23 H5-p=0.13 H12-p=0.13 C3-d=0.03 C10-d=0.03 H7-p=0.03 H14-p=0.03 C2-p=0.02 C9-p=0.02 H6-p=0.02 H13-p=0.02 H8-p=0.01 H15-p=0.01 C9-d=0.01 C2-d=0.01
 Beta  vir 122 OE=1.778 is H12-p=0.15 H5-p=0.15 Zn1-d=0.14 H11-p=0.12 H4-p=0.12 C2-d=0.07 C9-d=0.07 C3-d=0.04 C10-d=0.04 C9-p=0.03 C2-p=0.03 H13-p=0.03 H6-p=0.03
 Beta  vir 123 OE=1.792 is H12-p=0.10 H5-p=0.10 H14-p=0.10 H7-p=0.10 H15-p=0.10 H8-p=0.10 Zn1-d=0.10 H11-p=0.09 H4-p=0.09 H13-p=0.03 H6-p=0.03 C2-d=0.01 C9-d=0.01
 Beta  vir 124 OE=1.828 is H7-p=0.10 H14-p=0.10 H15-p=0.09 H8-p=0.09 H13-p=0.07 H6-p=0.07 H5-p=0.07 H12-p=0.07 H4-p=0.05 H11-p=0.05 C2-d=0.05 C9-d=0.05 C10-d=0.03 C3-d=0.03 Zn1-d=0.03 Zn1-p=0.01 C10-p=
 0.01 C3-p=0.01
 Beta  vir 125 OE=1.852 is H8-p=0.11 H15-p=0.11 H14-p=0.10 H7-p=0.10 Zn1-d=0.09 H4-p=0.09 H11-p=0.09 H12-p=0.07 H5-p=0.07 C10-d=0.03 C3-d=0.03 C2-d=0.02 C9-d=0.02
 Beta  vir 126 OE=1.887 is H5-p=0.12 H12-p=0.12 H11-p=0.11 H4-p=0.11 H15-p=0.09 H8-p=0.09 H14-p=0.08 H7-p=0.08 C9-d=0.05 C2-d=0.05 Zn1-p=-0.03 C2-s=0.02 C9-s=0.02 C9-p=0.02 C2-p=0.02 H6-p=0.01 H13-p=0.
 01
 Beta  vir 127 OE=1.917 is Zn1-d=0.31 H13-p=0.08 H6-p=0.08 C3-d=0.07 C10-d=0.07 C9-d=0.06 C2-d=0.06 H14-p=0.05 H7-p=0.05 H6-s=0.02 H13-s=0.02 C2-p=0.02 C9-p=0.02 H8-p=0.02 H15-p=0.02
 Beta  vir 128 OE=1.944 is Zn1-d=0.52 C2-d=0.06 C9-d=0.06 H15-p=0.06 H8-p=0.06 H13-p=0.04 H6-p=0.04 C3-d=0.04 C10-d=0.04 H5-p=0.01 H12-p=0.01
 Beta  vir 129 OE=1.951 is Zn1-d=0.57 C3-d=0.05 C10-d=0.05 H13-p=0.05 H6-p=0.05 C9-d=0.03 C2-d=0.03 H5-p=0.02 H12-p=0.02 H14-p=0.02 H7-p=0.02 H8-p=0.01 H15-p=0.01 C3-p=0.01 C10-p=0.01
 Beta  vir 130 OE=1.966 is Zn1-d=0.84 H4-p=0.02 H11-p=0.02 H15-p=0.02 H8-p=0.02
 Beta  vir 131 OE=1.975 is Zn1-d=0.12 H7-p=0.09 H14-p=0.09 C2-d=0.08 C9-d=0.08 C10-d=0.06 C3-d=0.06 H6-p=0.06 H13-p=0.06 H4-p=0.03 H11-p=0.03 H8-p=0.02 H15-p=0.02 H12-p=0.02 H5-p=0.02 C3-p=0.02 C10-p=0
 .02 Zn1-p=0.02 H13-s=0.01 H6-s=0.01
 Beta  vir 132 OE=2.071 is C2-d=0.14 C9-d=0.14 H12-p=0.11 H5-p=0.11 H4-p=0.09 H11-p=0.09 Zn1-p=0.07 H13-p=0.03 H6-p=0.03 C10-d=0.02 C3-d=0.02 H15-p=0.02 H8-p=0.02 H14-p=0.01 H7-p=0.01
 Beta  vir 133 OE=2.072 is Zn1-d=0.27 C2-d=0.09 C9-d=0.09 H5-p=0.07 H12-p=0.07 H8-p=0.05 H15-p=0.05 Zn1-p=0.04 C3-d=0.03 C10-d=0.03 H11-p=0.03 H4-p=0.03 H6-p=0.02 H13-p=0.02 C10-p=0.02 C3-p=0.02 Zn1-s=
 -0.02 C9-s=0.02 C2-s=0.02
 Beta  vir 134 OE=2.121 is C9-d=0.11 C2-d=0.11 Zn1-p=0.10 H11-p=0.10 H4-p=0.10 Zn1-d=0.07 H13-p=0.05 H6-p=0.05 C3-d=0.05 C10-d=0.05 H14-p=0.03 H7-p=0.03 C10-p=0.02 C3-p=0.02 H5-p=0.02 H12-p=0.02 H8-s=0
 .02 H15-s=0.02
 Beta  vir 135 OE=2.157 is Zn1-d=0.20 C2-d=0.12 C9-d=0.12 Zn1-p=0.11 H5-p=0.07 H12-p=0.07 H11-p=0.06 H4-p=0.06 C10-d=0.02 C3-d=0.02 H5-s=0.02 H12-s=0.02 H13-p=0.01 H6-p=0.01 H4-s=0.01 H11-s=0.01
 Beta  vir 136 OE=2.184 is Zn1-p=0.64 C10-d=0.06 C3-d=0.06 H6-p=0.04 H13-p=0.04 C9-d=0.01 C2-d=0.01 C10-s=0.01 C3-s=0.01 H12-p=0.01 H5-p=0.01 H11-p=0.01 H4-p=0.01
 Beta  vir 137 OE=2.192 is Zn1-p=0.69 C2-d=0.04 C9-d=0.04 Zn1-d=0.03 H5-p=0.03 H12-p=0.03 C10-d=0.02 C3-d=0.02 H7-s=0.01 H14-s=0.01 H13-p=0.01 H6-p=0.01
 Beta  vir 138 OE=2.230 is C3-d=0.11 C10-d=0.11 C2-d=0.10 C9-d=0.10 Zn1-p=0.05 H5-p=0.04 H12-p=0.04 H13-p=0.03 H6-p=0.03 H8-s=0.03 H15-s=0.03 H4-p=0.03 H11-p=0.03 Zn1-d=0.03 H15-p=0.03 H8-p=0.03 C10-s=
 0.03 C3-s=0.03 H7-p=0.02 H14-p=0.02 H11-s=0.02 H4-s=0.02
 Beta  vir 139 OE=2.241 is C3-d=0.12 C10-d=0.12 Zn1-d=0.11 H13-p=0.08 H6-p=0.08 H15-p=0.07 H8-p=0.07 H14-p=0.06 H7-p=0.06 Zn1-p=0.03 H5-p=0.02 H12-p=0.02 C2-d=0.01 C9-d=0.01 H4-s=0.01 H11-s=0.01 C10-s=
 0.01 C3-s=0.01 H4-p=0.01 H11-p=0.01
 Beta  vir 140 OE=2.264 is Zn1-p=0.20 Zn1-d=0.19 C10-d=0.05 C3-d=0.05 H13-p=0.05 H6-p=0.05 H7-p=0.05 H14-p=0.05 H4-p=0.04 H11-p=0.04 C9-d=0.04 C2-d=0.04 C10-p=0.02 C3-p=0.02 H8-s=0.01 H15-s=0.01 H7-s=0
 .01 H14-s=0.01
 Beta  vir 141 OE=2.275 is Zn1-p=0.23 Zn1-d=0.11 C10-d=0.07 C3-d=0.07 H15-p=0.05 H8-p=0.05 C2-d=0.04 C9-d=0.04 H12-p=0.03 H5-p=0.03 H6-p=0.03 H13-p=0.03 C9-p=0.02 C2-p=0.02 H4-p=0.02 H11-p=0.02 H7-s=0.
 02 H14-s=0.02 C3-p=0.02 C10-p=0.02 H7-p=0.02 H14-p=0.02
 Beta  vir 142 OE=2.275 is Zn1-d=0.25 C3-d=0.10 C10-d=0.10 C2-p=0.05 C9-p=0.05 H7-p=0.05 H14-p=0.05 H8-p=0.05 H15-p=0.05 C2-d=0.04 C9-d=0.04 H15-s=0.02 H8-s=0.02 H14-s=0.01 H7-s=0.01 H12-p=0.01 H5-p=0.
 01 C10-s=0.01 C3-s=0.01 H11-p=0.01 H4-p=0.01
 Beta  vir 143 OE=2.384 is Zn1-d=0.19 C9-d=0.11 C2-d=0.11 H12-p=0.07 H5-p=0.07 H11-p=0.07 H4-p=0.07 H6-s=0.05 H13-s=0.05 C3-p=0.02 C10-p=0.02 H14-p=0.02 H7-p=0.02 C10-d=0.02 C3-d=0.02 C9-p=0.01 C2-p=0.
 01 C10-s=0.01 C3-s=0.01
 Beta  vir 144 OE=2.390 is Zn1-p=0.18 C2-d=0.08 C9-d=0.08 C3-d=0.07 C10-d=0.07 H15-p=0.05 H8-p=0.05 H11-p=0.05 H4-p=0.05 H12-p=0.05 H5-p=0.05 H14-p=0.04 H7-p=0.04 H13-s=0.03 H6-s=0.03 C9-p=0.02 C2-p=0.
 02
 Beta  vir 145 OE=2.414 is C10-d=0.15 C3-d=0.15 C9-p=0.06 C2-p=0.06 H15-p=0.05 H8-p=0.05 C9-d=0.05 C2-d=0.05 H7-p=0.04 H14-p=0.04 H13-p=0.04 H6-p=0.04 H12-p=0.03 H5-p=0.03 H4-p=0.02 H11-p=0.02 Zn1-d=0.
 02 H11-s=0.02 H4-s=0.02 H12-s=0.02 H5-s=0.02
 Beta  vir 146 OE=2.439 is C10-d=0.13 C3-d=0.13 Zn1-d=0.07 C2-d=0.07 C9-d=0.07 H14-p=0.05 H7-p=0.05 H8-p=0.05 H15-p=0.05 H4-p=0.04 H11-p=0.04 C9-p=0.04 C2-p=0.04 H12-p=0.03 H5-p=0.03 H13-p=0.03 H6-p=0.
 03 H5-s=0.01 H12-s=0.01
 Beta  vir 147 OE=2.487 is Zn1-p=0.15 C9-s=0.06 C2-s=0.06 C3-d=0.06 C10-d=0.06 C2-d=0.05 C9-d=0.05 H11-p=0.04 H4-p=0.04 H13-s=0.04 H6-s=0.04 H12-p=0.04 H5-p=0.04 H15-p=0.03 H8-p=0.03 H7-p=0.03 H14-p=0.
 03 H6-p=0.02 H13-p=0.02 H5-s=0.01 H12-s=0.01 C2-p=0.01 C9-p=0.01 H4-s=0.01 H11-s=0.01
 Beta  vir 148 OE=2.494 is C10-d=0.09 C3-d=0.09 C9-d=0.07 C2-d=0.07 C2-s=0.06 C9-s=0.06 Zn1-d=0.06 H11-p=0.04 H4-p=0.04 H5-p=0.04 H12-p=0.04 H7-p=0.03 H14-p=0.03 H8-p=0.03 H15-p=0.03 H13-p=0.02 H6-p=0.
 02 Zn1-s=-0.02 C9-p=0.02 C2-p=0.02 H12-s=0.02 H5-s=0.02 H4-s=0.02 H11-s=0.02
 Beta  vir 149 OE=2.627 is Zn1-p=0.10 C3-s=0.09 C10-s=0.09 C10-d=0.08 C3-d=0.08 C2-s=-0.07 C9-s=-0.07 C3-p=0.06 C10-p=0.06 H7-p=0.05 H14-p=0.05 H13-s=0.05 H6-s=0.05 H6-p=0.04 H13-p=0.04 H15-s=0.04 H8-s
 =0.04 H8-p=0.04 H15-p=0.04 H14-s=0.03 H7-s=0.03 C2-d=0.02 C9-d=0.02
 Beta  vir 150 OE=2.631 is H8-p=0.09 H15-p=0.09 C10-s=0.08 C3-s=0.08 C10-d=0.07 C3-d=0.07 C10-p=0.06 C3-p=0.06 H6-s=0.05 H13-s=0.05 H14-s=0.05 H7-s=0.05 H13-p=0.04 H6-p=0.04 H7-p=0.02 H14-p=0.02 C2-s=-
 0.02 C9-s=-0.02 Zn1-d=0.01 C2-d=0.01 C9-d=0.01 H5-p=0.01 H12-p=0.01
 Beta  vir 151 OE=2.638 is H14-p=0.15 H7-p=0.15 H11-s=0.08 H4-s=0.08 H12-s=0.07 H5-s=0.07 H8-s=0.07 H15-s=0.07 H8-p=0.06 H15-p=0.06 H5-p=0.05 H12-p=0.05 H4-p=0.05 H11-p=0.05 H14-s=0.04 H7-s=0.04 C3-p=-
 0.04 C10-p=-0.04 C2-p=-0.03 C9-p=-0.03 C9-d=-0.01 C2-d=-0.01
 Beta  vir 152 OE=2.669 is H15-p=0.14 H8-p=0.14 H7-p=0.12 H14-p=0.12 H15-s=0.08 H8-s=0.08 H12-s=0.08 H5-s=0.08 C10-p=-0.06 C3-p=-0.06 H7-s=0.06 H14-s=0.06 H11-s=0.05 H4-s=0.05 H11-p=0.04 H4-p=0.04 C2-p
 =-0.03 C9-p=-0.03 H12-p=0.02 H5-p=0.02 H6-p=0.02 H13-p=0.02 C3-d=-0.01 C10-d=-0.01
 Beta  vir 153 OE=2.712 is Zn1-p=0.12 C9-d=0.08 C2-d=0.08 C9-p=0.08 C2-p=0.08 H4-p=0.05 H11-p=0.05 C10-d=0.04 C3-d=0.04 C2-s=0.04 C9-s=0.04 H5-p=0.04 H12-p=0.04 H4-s=0.04 H11-s=0.04 H5-s=0.03 H12-s=0.0
 3 H15-p=0.03 H8-p=0.03 H13-p=0.01 H6-p=0.01 C3-s=-0.01 C10-s=-0.01
 Beta  vir 154 OE=2.723 is H5-p=0.09 H12-p=0.09 C2-p=0.07 C9-p=0.07 C2-d=0.06 C9-d=0.06 H15-s=0.05 H8-s=0.05 H14-p=0.04 H7-p=0.04 Zn1-d=0.04 C10-d=0.04 C3-d=0.04 H11-s=0.03 H4-s=0.03 C9-s=0.03 C2-s=0.0
 3 H11-p=0.02 H4-p=0.02 H6-p=0.02 H13-p=0.02 H8-p=0.02 H15-p=0.02 Zn1-s=-0.01
 Beta  vir 155 OE=2.732 is H7-s=0.08 H14-s=0.08 H12-s=0.08 H5-s=0.08 H15-s=0.07 H8-s=0.07 H11-p=0.05 H4-p=0.05 C9-p=0.05 C2-p=0.05 H15-p=0.04 H8-p=0.04 C10-p=0.04 C3-p=0.04 H4-s=0.03 H11-s=0.03 H13-p=0
 .02 H6-p=0.02 C3-d=0.02 C10-d=0.02
 Beta  vir 156 OE=2.754 is H13-p=0.24 H6-p=0.24 H15-p=0.07 H8-p=0.07 H13-s=0.06 H6-s=0.06 H14-s=0.03 H7-s=0.03 H7-p=0.02 H14-p=0.02 C10-d=0.02 C3-d=0.02 H4-s=0.02 H11-s=0.02 C9-p=0.01 C2-p=0.01
 Beta  vir 157 OE=2.756 is H4-s=0.09 H11-s=0.09 H7-s=0.08 H14-s=0.08 H12-s=0.08 H5-s=0.08 H12-p=0.06 H5-p=0.06 H15-s=0.06 H8-s=0.06 H7-p=0.06 H14-p=0.06 H11-p=0.04 H4-p=0.04 C9-d=-0.02 C2-d=-0.02 H13-p
 =0.02 H6-p=0.02 Zn1-d=0.02 C10-p=0.02 C3-p=0.02
 Beta  vir 158 OE=2.775 is H11-p=0.10 H4-p=0.10 H12-p=0.09 H5-p=0.09 C2-d=0.06 C9-d=0.06 C9-p=0.05 C2-p=0.05 C3-p=0.05 C10-p=0.05 H15-p=0.04 H8-p=0.04 C3-d=0.04 C10-d=0.04 H4-s=0.02 H11-s=0.02 H14-p=0.
 02 H7-p=0.02 H13-p=0.01 H6-p=0.01 H12-s=0.01 H5-s=0.01
 Beta  vir 159 OE=2.776 is H4-p=0.10 H11-p=0.10 H14-p=0.08 H7-p=0.08 C10-p=0.07 C3-p=0.07 H5-p=0.06 H12-p=0.06 H8-p=0.04 H15-p=0.04 C10-d=0.04 C3-d=0.04 H11-s=0.03 H4-s=0.03 H5-s=0.03 H12-s=0.03 H13-p=
 0.02 H6-p=0.02 C9-d=0.02 C2-d=0.02
 Beta  vir 160 OE=2.780 is H6-p=0.22 H13-p=0.22 H7-p=0.07 H14-p=0.07 H8-s=0.05 H15-s=0.05 Zn1-p=0.04 H13-s=0.04 H6-s=0.04 H8-p=0.03 H15-p=0.03 C3-d=0.03 C10-d=0.03 C10-p=0.01 C3-p=0.01
 Beta  vir 161 OE=2.799 is H13-s=0.16 H6-s=0.16 C3-p=0.09 C10-p=0.09 C10-d=0.04 C3-d=0.04 C9-d=0.04 C2-d=0.04 H15-s=0.04 H8-s=0.04 C9-p=0.03 C2-p=0.03 H4-s=0.03 H11-s=0.03 H8-p=0.02 H15-p=0.02 H7-s=0.0
 1 H14-s=0.01 H6-p=0.01 H13-p=0.01
 Beta  vir 162 OE=2.814 is C2-d=0.11 C9-d=0.11 C10-d=0.08 C3-d=0.08 C2-p=0.07 C9-p=0.07 H12-p=0.04 H5-p=0.04 C3-p=0.04 C10-p=0.04 H14-s=0.03 H7-s=0.03 H4-p=0.03 H11-p=0.03 H11-s=0.03 H4-s=0.03 H12-s=0.
 02 H5-s=0.02 H8-s=0.02 H15-s=0.02 H14-p=0.01 H7-p=0.01
 Beta  vir 163 OE=2.822 is C10-d=0.08 C3-d=0.08 H5-s=0.07 H12-s=0.07 C3-p=0.07 C10-p=0.07 H14-s=0.07 H7-s=0.07 C9-d=0.05 C2-d=0.05 H13-s=0.04 H6-s=0.04 H6-p=0.02 H13-p=0.02 H11-s=0.02 H4-s=0.02 H15-p=0
 .02 H8-p=0.02 H14-p=0.02 H7-p=0.02 H8-s=0.01 H15-s=0.01 Zn1-d=0.01
 Beta  vir 164 OE=2.835 is H6-s=0.15 H13-s=0.15 C10-p=0.08 C3-p=0.08 H4-s=0.05 H11-s=0.05 Zn1-d=0.05 C3-d=0.05 C10-d=0.05 C2-d=0.03 C9-d=0.03 H5-s=0.03 H12-s=0.03 H8-s=0.02 H15-s=0.02 H15-p=0.02 H8-p=0
 .02 H11-p=0.01 H4-p=0.01 C2-s=0.01 C9-s=0.01
 Beta  vir 165 OE=2.906 is H12-s=0.12 H5-s=0.12 H12-p=0.10 H5-p=0.10 H11-p=0.08 H4-p=0.08 H4-s=0.08 H11-s=0.08 H8-s=0.05 H15-s=0.05 H7-s=0.04 H14-s=0.04 C2-p=-0.03 C9-p=-0.03 H14-p=0.03 H7-p=0.03 H15-p
 =0.02 H8-p=0.02 C2-s=-0.02 C9-s=-0.02 H6-s=0.02 H13-s=0.02 C3-s=-0.01 C10-s=-0.01 Zn1-d=0.01
 Beta  vir 166 OE=2.915 is H11-s=0.14 H4-s=0.14 H12-s=0.10 H5-s=0.10 H4-p=0.10 H11-p=0.10 H5-p=0.09 H12-p=0.09 H7-s=0.04 H14-s=0.04 C9-s=-0.04 C2-s=-0.04 H8-s=0.03 H15-s=0.03 H8-p=0.03 H15-p=0.03 H14-p
 =0.02 H7-p=0.02 C2-p=-0.02 C9-p=-0.02 C10-s=-0.02 C3-s=-0.02 Zn1-p=0.02 H6-p=0.02 H13-p=0.02
 Beta  vir 167 OE=2.999 is H8-s=0.07 H15-s=0.07 H7-s=0.07 H14-s=0.07 H6-s=0.05 H13-s=0.05 H13-p=0.05 H6-p=0.05 C2-p=0.04 C9-p=0.04 H8-p=0.04 H15-p=0.04 H5-s=0.04 H12-s=0.04 H14-p=0.04 H7-p=0.04 H11-s=0
 .04 H4-s=0.04 C10-p=0.03 C3-p=0.03 Zn1-p=0.03 H5-p=0.02 H12-p=0.02 C2-s=-0.02 C9-s=-0.02 H11-p=0.02 H4-p=0.02
 Beta  vir 168 OE=3.016 is H14-s=0.09 H7-s=0.09 H15-s=0.08 H8-s=0.08 H6-s=0.07 H13-s=0.07 H14-p=0.06 H7-p=0.06 H8-p=0.06 H15-p=0.06 H6-p=0.05 H13-p=0.05 C9-p=0.05 C2-p=0.05 C10-s=-0.03 C3-s=-0.03 H4-s=
 0.03 H11-s=0.03 C10-p=0.03 C3-p=0.03 H5-s=0.02 H12-s=0.02 Zn1-s=-0.01 H4-p=0.01 H11-p=0.01
 Beta  vir 169 OE=3.201 is C9-p=0.34 C2-p=0.34 C10-p=0.04 C3-p=0.04 Zn1-f=0.03 Zn1-p=0.03 H8-p=0.02 H15-p=0.02 H7-p=0.02 H14-p=0.02 H6-p=0.02 H13-p=0.02 C9-s=0.01 C2-s=0.01 H13-s=0.01 H6-s=0.01 C10-d=0
 .01 C3-d=0.01
 Beta  vir 170 OE=3.339 is C2-p=0.21 C9-p=0.21 C3-p=0.17 C10-p=0.17 Zn1-d=0.03 H14-p=0.03 H7-p=0.03 H8-p=0.03 H15-p=0.03 Zn1-s=0.02 H6-p=0.02 H13-p=0.02
 Beta  vir 171 OE=3.470 is C2-p=0.24 C9-p=0.24 C10-p=0.14 C3-p=0.14 Zn1-p=0.08 H5-p=0.02 H12-p=0.02 H4-p=0.02 H11-p=0.02 Zn1-f=0.02 H15-p=0.01 H8-p=0.01 H14-p=0.01 H7-p=0.01 C9-d=0.01 C2-d=0.01 H12-s=-
 0.01 H5-s=-0.01 H4-s=-0.01 H11-s=-0.01
 Beta  vir 172 OE=3.659 is C2-p=0.34 C9-p=0.34 Zn1-d=0.09 Zn1-s=0.06 C9-d=0.03 C2-d=0.03 C3-p=0.02 C10-p=0.02 H12-p=0.01 H5-p=0.01 H11-p=0.01 H4-p=0.01
 Beta  vir 173 OE=3.932 is C9-p=0.36 C2-p=0.36 C2-d=0.09 C9-d=0.09 H11-s=0.01 H4-s=0.01 C10-p=0.01 C3-p=0.01 Zn1-f=0.01 H12-s=0.01 H5-s=0.01
 Beta  vir 174 OE=3.948 is C2-p=0.38 C9-p=0.38 C2-d=0.09 C9-d=0.09 C3-p=0.01 C10-p=0.01
 Beta  vir 175 OE=4.024 is C10-p=0.38 C3-p=0.38 C3-d=0.08 C10-d=0.08 H8-s=0.01 H15-s=0.01
 Beta  vir 176 OE=4.024 is C10-p=0.38 C3-p=0.38 C10-d=0.08 C3-d=0.08
 Beta  vir 177 OE=4.025 is C3-p=0.38 C10-p=0.38 C10-d=0.08 C3-d=0.08
 Beta  vir 178 OE=4.026 is C10-p=0.39 C3-p=0.39 C3-d=0.08 C10-d=0.08
 Beta  vir 179 OE=4.374 is C10-p=0.22 C3-p=0.22 C9-p=0.17 C2-p=0.17 Zn1-f=0.09 C2-d=0.04 C9-d=0.04 C3-d=0.03 C10-d=0.03
 Beta  vir 180 OE=4.405 is C3-p=0.24 C10-p=0.24 C2-p=0.19 C9-p=0.19 C2-d=0.03 C9-d=0.03 C3-d=0.03 C10-d=0.03 Zn1-f=0.01
 Beta  vir 181 OE=4.523 is Zn1-f=1.00
 Beta  vir 182 OE=4.523 is Zn1-f=1.00
 Beta  vir 183 OE=4.530 is Zn1-f=0.99
 Beta  vir 184 OE=4.533 is Zn1-f=0.99
 Beta  vir 185 OE=4.577 is Zn1-f=0.98
 Beta  vir 186 OE=4.578 is Zn1-f=0.93 C9-p=0.02 C2-p=0.02 C10-p=0.01 C3-p=0.01
 Beta  vir 187 OE=4.733 is Zn1-s=0.87 C2-p=0.05 C9-p=0.05
 Beta  vir 188 OE=4.812 is Zn1-f=0.91 C9-p=0.03 C2-p=0.03
 Beta  vir 189 OE=8.394 is Zn1-d=1.00
 Beta  vir 190 OE=8.405 is Zn1-d=1.00
 Beta  vir 191 OE=8.488 is Zn1-d=1.00
 Beta  vir 192 OE=8.519 is Zn1-d=1.00
 Beta  vir 193 OE=8.782 is Zn1-d=0.99
 Beta  vir 194 OE=10.916 is Zn1-p=1.00
 Beta  vir 195 OE=10.950 is Zn1-p=1.00
 Beta  vir 196 OE=11.203 is Zn1-p=1.00
 Beta  vir 197 OE=24.801 is C2-s=0.47 C9-s=0.47 C10-s=0.03 C3-s=0.03
 Beta  vir 198 OE=24.810 is C2-s=0.47 C9-s=0.47 C10-s=0.03 C3-s=0.03
 Beta  vir 199 OE=24.938 is C10-s=0.47 C3-s=0.47 C2-s=0.03 C9-s=0.03
 Beta  vir 200 OE=24.939 is C10-s=0.47 C3-s=0.47 C9-s=0.03 C2-s=0.03
 Beta  vir 201 OE=35.650 is Zn1-s=1.00
 Beta  vir 202 OE=45.925 is Zn1-p=1.00
 Beta  vir 203 OE=45.950 is Zn1-p=1.00
 Beta  vir 204 OE=46.143 is Zn1-p=1.00
 Beta  vir 205 OE=190.654 is Zn1-s=1.00
 Beta  vir 206 OE=986.245 is Zn1-s=1.00
 
 1\1\GINC-GAMBA\SP\UOVGF-FC\Gen\C4H10Zn1(1+,2)\IRIKURA\25-May-2017\0\\#
  EPT(OVGF+P3,ReadOrbitals)/GEN gfinput geom=check guess=check scf=xqc 
 pop(all,thresh=1)\\BEB step 5: cation EPT for VIE2 for ZnEt2\\1,2\Zn,0
 ,0.,0.,0.092059\C,0,0.,1.933945,0.090127\C,0,1.360973,2.577345,-0.2337
 51\H,0,-0.346594,2.294125,1.069841\H,0,-0.75069,2.294418,-0.628225\H,0
 ,1.311324,3.675407,-0.22301\H,0,2.134924,2.28887,0.488877\H,0,1.727459
 ,2.287037,-1.226622\C,0,0.,-1.933945,0.090127\C,0,-1.360973,-2.577345,
 -0.233751\H,0,0.346594,-2.294125,1.069841\H,0,0.75069,-2.294418,-0.628
 225\H,0,-1.311324,-3.675407,-0.22301\H,0,-2.134924,-2.28887,0.488877\H
 ,0,-1.727459,-2.287037,-1.226622\\Version=ES64L-G09RevD.01\State=2-B\H
 F=-1934.7044299\MP2=-1935.7109\PUHF=-1934.7148635\PMP2-0=-1935.7190671
 \S2=0.86033\S2-1=0.811958\S2A=0.751694\RMSD=1.248e-09\PG=C02 [C2(Zn1),
 X(C4H10)]\\@


 CONFIDENCE: THAT QUIET ASSURED FEELING YOU HAVE
 JUST BEFORE YOU FALL FLAT ON YOUR FACE.
 Job cpu time:       0 days  0 hours  6 minutes  7.6 seconds.
 File lengths (MBytes):  RWF=   2769 Int=      0 D2E=      0 Chk=      9 Scr=      1
 Normal termination of Gaussian 09 at Thu May 25 16:08:11 2017.
