 Entering Gaussian System, Link 0=g09
 Initial command:
 /usr/local/apps/g09/l1.exe "/wrk/irikura/Gau-17738.inp" -scrdir="/wrk/irikura/"
 Entering Link 1 = /usr/local/apps/g09/l1.exe PID=     17740.
  
 Copyright (c) 1988,1990,1992,1993,1995,1998,2003,2009,2013,
            Gaussian, Inc.  All Rights Reserved.
  
 This is part of the Gaussian(R) 09 program.  It is based on
 the Gaussian(R) 03 system (copyright 2003, Gaussian, Inc.),
 the Gaussian(R) 98 system (copyright 1998, Gaussian, Inc.),
 the Gaussian(R) 94 system (copyright 1995, Gaussian, Inc.),
 the Gaussian 92(TM) system (copyright 1992, Gaussian, Inc.),
 the Gaussian 90(TM) system (copyright 1990, Gaussian, Inc.),
 the Gaussian 88(TM) system (copyright 1988, Gaussian, Inc.),
 the Gaussian 86(TM) system (copyright 1986, Carnegie Mellon
 University), and the Gaussian 82(TM) system (copyright 1983,
 Carnegie Mellon University). Gaussian is a federally registered
 trademark of Gaussian, Inc.
  
 This software contains proprietary and confidential information,
 including trade secrets, belonging to Gaussian, Inc.
  
 This software is provided under written license and may be
 used, copied, transmitted, or stored only in accord with that
 written license.
  
 The following legend is applicable only to US Government
 contracts under FAR:
  
                    RESTRICTED RIGHTS LEGEND
  
 Use, reproduction and disclosure by the US Government is
 subject to restrictions as set forth in subparagraphs (a)
 and (c) of the Commercial Computer Software - Restricted
 Rights clause in FAR 52.227-19.
  
 Gaussian, Inc.
 340 Quinnipiac St., Bldg. 40, Wallingford CT 06492
  
  
 ---------------------------------------------------------------
 Warning -- This program may not be used in any manner that
 competes with the business of Gaussian, Inc. or will provide
 assistance to any competitor of Gaussian, Inc.  The licensee
 of this program is prohibited from giving any competitor of
 Gaussian, Inc. access to this program.  By using this program,
 the user acknowledges that Gaussian, Inc. is engaged in the
 business of creating and licensing software in the field of
 computational chemistry and represents and warrants to the
 licensee that it is not a competitor of Gaussian, Inc. and that
 it will not use this program in any manner prohibited above.
 ---------------------------------------------------------------
  

 Cite this work as:
 Gaussian 09, Revision D.01,
 M. J. Frisch, G. W. Trucks, H. B. Schlegel, G. E. Scuseria, 
 M. A. Robb, J. R. Cheeseman, G. Scalmani, V. Barone, B. Mennucci, 
 G. A. Petersson, H. Nakatsuji, M. Caricato, X. Li, H. P. Hratchian, 
 A. F. Izmaylov, J. Bloino, G. Zheng, J. L. Sonnenberg, M. Hada, 
 M. Ehara, K. Toyota, R. Fukuda, J. Hasegawa, M. Ishida, T. Nakajima, 
 Y. Honda, O. Kitao, H. Nakai, T. Vreven, J. A. Montgomery, Jr., 
 J. E. Peralta, F. Ogliaro, M. Bearpark, J. J. Heyd, E. Brothers, 
 K. N. Kudin, V. N. Staroverov, T. Keith, R. Kobayashi, J. Normand, 
 K. Raghavachari, A. Rendell, J. C. Burant, S. S. Iyengar, J. Tomasi, 
 M. Cossi, N. Rega, J. M. Millam, M. Klene, J. E. Knox, J. B. Cross, 
 V. Bakken, C. Adamo, J. Jaramillo, R. Gomperts, R. E. Stratmann, 
 O. Yazyev, A. J. Austin, R. Cammi, C. Pomelli, J. W. Ochterski, 
 R. L. Martin, K. Morokuma, V. G. Zakrzewski, G. A. Voth, 
 P. Salvador, J. J. Dannenberg, S. Dapprich, A. D. Daniels, 
 O. Farkas, J. B. Foresman, J. V. Ortiz, J. Cioslowski, 
 and D. J. Fox, Gaussian, Inc., Wallingford CT, 2013.
 
 ******************************************
 Gaussian 09:  ES64L-G09RevD.01 24-Apr-2013
                18-May-2017 
 ******************************************
 %chk=ZnEt2.chk
 %nprocs=8
 Will use up to    8 processors via shared memory.
 %mem=2000mw
 -----------------------------------------------------------------
 # HF/GEN gfinput geom=check IOP(6/81=3) scf=xqc pop(all,thresh=1)
 -----------------------------------------------------------------
 1/29=2,38=1/1;
 2/12=2,40=1/2;
 3/5=7,11=9,14=-4,16=1,24=10,25=1,30=1/1,2,3;
 4//1;
 5/5=2,8=3,13=1,38=5/2,8;
 6/7=2,8=2,9=2,10=2,28=1,81=3,87=-1,88=1/1;
 99/5=1,9=1/99;
 ------------------------------------------
 BEB step 2: Hartree-Fock B and U for ZnEt2
 ------------------------------------------
 Structure from the checkpoint file:  "ZnEt2.chk"
 Charge =  0 Multiplicity = 1
 Redundant internal coordinates found in file.
 Zn,0,0.,0.,0.092059
 C,0,0.,1.933945,0.090127
 C,0,1.360973,2.577345,-0.233751
 H,0,-0.346594,2.294125,1.069841
 H,0,-0.75069,2.294418,-0.628225
 H,0,1.311324,3.675407,-0.22301
 H,0,2.134924,2.28887,0.488877
 H,0,1.727459,2.287037,-1.226622
 C,0,0.,-1.933945,0.090127
 C,0,-1.360973,-2.577345,-0.233751
 H,0,0.346594,-2.294125,1.069841
 H,0,0.75069,-2.294418,-0.628225
 H,0,-1.311324,-3.675407,-0.22301
 H,0,-2.134924,-2.28887,0.488877
 H,0,-1.727459,-2.287037,-1.226622
 Recover connectivity data from disk.
                          Input orientation:                          
 ---------------------------------------------------------------------
 Center     Atomic      Atomic             Coordinates (Angstroms)
 Number     Number       Type             X           Y           Z
 ---------------------------------------------------------------------
      1         30           0        0.000000    0.000000    0.092059
      2          6           0        0.000000    1.933945    0.090127
      3          6           0        1.360973    2.577345   -0.233751
      4          1           0       -0.346594    2.294125    1.069841
      5          1           0       -0.750690    2.294418   -0.628225
      6          1           0        1.311324    3.675407   -0.223010
      7          1           0        2.134924    2.288870    0.488877
      8          1           0        1.727459    2.287037   -1.226622
      9          6           0        0.000000   -1.933945    0.090127
     10          6           0       -1.360973   -2.577345   -0.233751
     11          1           0        0.346594   -2.294125    1.069841
     12          1           0        0.750690   -2.294418   -0.628225
     13          1           0       -1.311324   -3.675407   -0.223010
     14          1           0       -2.134924   -2.288870    0.488877
     15          1           0       -1.727459   -2.287037   -1.226622
 ---------------------------------------------------------------------
                    Distance matrix (angstroms):
                    1          2          3          4          5
     1  Zn   0.000000
     2  C    1.933946   0.000000
     3  C    2.932764   1.539840   0.000000
     4  H    2.517776   1.099862   2.166876   0.000000
     5  H    2.519265   1.099775   2.166744   1.745486   0.000000
     6  H    3.915029   2.202343   1.099236   2.515571   2.514604
     7  H    3.155042   2.200653   1.097456   2.548623   3.094304
     8  H    3.154928   2.200595   1.097444   3.094429   2.549383
     9  C    1.933946   3.867890   4.723228   4.353911   4.354150
    10  C    2.932764   4.723228   5.829221   5.143883   4.925660
    11  H    2.517776   4.353911   5.143883   4.640318   5.014199
    12  H    2.519265   4.354150   4.925660   5.014199   4.828204
    13  H    3.915029   5.769095   6.799867   6.183646   6.009769
    14  H    3.155042   4.748586   6.035191   4.953735   4.916355
    15  H    3.154928   4.747066   5.846915   5.307313   4.722487
                    6          7          8          9         10
     6  H    0.000000
     7  H    1.762834   0.000000
     8  H    1.762945   1.763227   0.000000
     9  C    5.769095   4.748586   4.747066   0.000000
    10  C    6.799867   6.035191   5.846915   1.539840   0.000000
    11  H    6.183646   4.953735   5.307313   1.099862   2.166876
    12  H    6.009769   4.916355   4.722487   1.099775   2.166744
    13  H    7.804662   6.925028   6.766992   2.202343   1.099236
    14  H    6.925028   6.259976   6.228954   2.200653   1.097456
    15  H    6.766992   6.228954   5.732243   2.200595   1.097444
                   11         12         13         14         15
    11  H    0.000000
    12  H    1.745486   0.000000
    13  H    2.515571   2.514604   0.000000
    14  H    2.548623   3.094304   1.762834   0.000000
    15  H    3.094429   2.549383   1.762945   1.763227   0.000000
 Stoichiometry    C4H10Zn
 Framework group  C2[C2(Zn),X(C4H10)]
 Deg. of freedom    20
 Full point group                 C2      NOp   2
 Largest Abelian subgroup         C2      NOp   2
 Largest concise Abelian subgroup C2      NOp   2
                         Standard orientation:                         
 ---------------------------------------------------------------------
 Center     Atomic      Atomic             Coordinates (Angstroms)
 Number     Number       Type             X           Y           Z
 ---------------------------------------------------------------------
      1         30           0        0.000000    0.000000    0.092059
      2          6           0        0.000000    1.933945    0.090127
      3          6           0        1.360973    2.577345   -0.233751
      4          1           0       -0.346594    2.294125    1.069841
      5          1           0       -0.750690    2.294418   -0.628225
      6          1           0        1.311324    3.675407   -0.223010
      7          1           0        2.134924    2.288870    0.488877
      8          1           0        1.727459    2.287037   -1.226622
      9          6           0        0.000000   -1.933945    0.090127
     10          6           0       -1.360973   -2.577345   -0.233751
     11          1           0        0.346594   -2.294125    1.069841
     12          1           0        0.750690   -2.294418   -0.628225
     13          1           0       -1.311324   -3.675407   -0.223010
     14          1           0       -2.134924   -2.288870    0.488877
     15          1           0       -1.727459   -2.287037   -1.226622
 ---------------------------------------------------------------------
 Rotational constants (GHZ):     14.6723335      1.3797086      1.3187032
 General basis read from cards:  (5D, 7F)
 AO basis set in the form of general basis input (Overlap normalization):
      1 0
 S   6 1.00       0.000000000000
      0.3163360000D+06  0.6494033039D-03
      0.4856100000D+05  0.4911112485D-02
      0.1115740000D+05  0.2518467188D-01
      0.3205010000D+04  0.9870930219D-01
      0.1068580000D+04  0.3004910850D+00
      0.3963940000D+03  0.6600778707D+00
 S   1 1.00       0.000000000000
      0.1598060000D+03  0.1000000000D+01
 S   1 1.00       0.000000000000
      0.6858900000D+02  0.1000000000D+01
 S   1 1.00       0.000000000000
      0.2370810000D+02  0.1000000000D+01
 S   1 1.00       0.000000000000
      0.1003720000D+02  0.1000000000D+01
 S   1 1.00       0.000000000000
      0.2810430000D+01  0.1000000000D+01
 S   1 1.00       0.000000000000
      0.1069640000D+01  0.1000000000D+01
 S   1 1.00       0.000000000000
      0.1469510000D+00  0.1000000000D+01
 S   1 1.00       0.000000000000
      0.5114200000D-01  0.1000000000D+01
 P   5 1.00       0.000000000000
      0.2213180000D+04  0.3573790107D-02
      0.5270500000D+03  0.2852211875D-01
      0.1722930000D+03  0.1295976328D+00
      0.6608140000D+02  0.3663134859D+00
      0.2768630000D+02  0.5939311787D+00
 P   1 1.00       0.000000000000
      0.1218410000D+02  0.1000000000D+01
 P   1 1.00       0.000000000000
      0.4987960000D+01  0.1000000000D+01
 P   1 1.00       0.000000000000
      0.2057910000D+01  0.1000000000D+01
 P   1 1.00       0.000000000000
      0.7986090000D+00  0.1000000000D+01
 D   3 1.00       0.000000000000
      0.5840840000D+02  0.5696697377D-01
      0.1644920000D+02  0.3095914479D+00
      0.5575700000D+01  0.7624985047D+00
 D   1 1.00       0.000000000000
      0.1884410000D+01  0.1000000000D+01
 D   1 1.00       0.000000000000
      0.5723050000D+00  0.1000000000D+01
 F   1 1.00       0.000000000000
      0.1620000000D+01  0.1000000000D+01
 ****
      2 0
 S   6 1.00       0.000000000000
      0.4563240000D+04  0.1966650249D-02
      0.6820240000D+03  0.1523060193D-01
      0.1549730000D+03  0.7612690966D-01
      0.4445530000D+02  0.2608010331D+00
      0.1302900000D+02  0.6164620782D+00
      0.1827730000D+01  0.2210060280D+00
 SP   3 1.00       0.000000000000
      0.2096420000D+02  0.1146600807D+00  0.4024869267D-01
      0.4803310000D+01  0.9199996477D+00  0.2375939567D+00
      0.1459330000D+01 -0.3030682134D-02  0.8158538515D+00
 SP   1 1.00       0.000000000000
      0.4834560000D+00  0.1000000000D+01  0.1000000000D+01
 SP   1 1.00       0.000000000000
      0.1455850000D+00  0.1000000000D+01  0.1000000000D+01
 D   1 1.00       0.000000000000
      0.6260000000D+00  0.1000000000D+01
 ****
      3 0
 S   6 1.00       0.000000000000
      0.4563240000D+04  0.1966650249D-02
      0.6820240000D+03  0.1523060193D-01
      0.1549730000D+03  0.7612690966D-01
      0.4445530000D+02  0.2608010331D+00
      0.1302900000D+02  0.6164620782D+00
      0.1827730000D+01  0.2210060280D+00
 SP   3 1.00       0.000000000000
      0.2096420000D+02  0.1146600807D+00  0.4024869267D-01
      0.4803310000D+01  0.9199996477D+00  0.2375939567D+00
      0.1459330000D+01 -0.3030682134D-02  0.8158538515D+00
 SP   1 1.00       0.000000000000
      0.4834560000D+00  0.1000000000D+01  0.1000000000D+01
 SP   1 1.00       0.000000000000
      0.1455850000D+00  0.1000000000D+01  0.1000000000D+01
 D   1 1.00       0.000000000000
      0.6260000000D+00  0.1000000000D+01
 ****
      4 0
 S   3 1.00       0.000000000000
      0.3386500000D+02  0.2549381454D-01
      0.5094790000D+01  0.1903731086D+00
      0.1158790000D+01  0.8521614860D+00
 S   1 1.00       0.000000000000
      0.3258400000D+00  0.1000000000D+01
 S   1 1.00       0.000000000000
      0.1027410000D+00  0.1000000000D+01
 P   1 1.00       0.000000000000
      0.7500000000D+00  0.1000000000D+01
 ****
      5 0
 S   3 1.00       0.000000000000
      0.3386500000D+02  0.2549381454D-01
      0.5094790000D+01  0.1903731086D+00
      0.1158790000D+01  0.8521614860D+00
 S   1 1.00       0.000000000000
      0.3258400000D+00  0.1000000000D+01
 S   1 1.00       0.000000000000
      0.1027410000D+00  0.1000000000D+01
 P   1 1.00       0.000000000000
      0.7500000000D+00  0.1000000000D+01
 ****
      6 0
 S   3 1.00       0.000000000000
      0.3386500000D+02  0.2549381454D-01
      0.5094790000D+01  0.1903731086D+00
      0.1158790000D+01  0.8521614860D+00
 S   1 1.00       0.000000000000
      0.3258400000D+00  0.1000000000D+01
 S   1 1.00       0.000000000000
      0.1027410000D+00  0.1000000000D+01
 P   1 1.00       0.000000000000
      0.7500000000D+00  0.1000000000D+01
 ****
      7 0
 S   3 1.00       0.000000000000
      0.3386500000D+02  0.2549381454D-01
      0.5094790000D+01  0.1903731086D+00
      0.1158790000D+01  0.8521614860D+00
 S   1 1.00       0.000000000000
      0.3258400000D+00  0.1000000000D+01
 S   1 1.00       0.000000000000
      0.1027410000D+00  0.1000000000D+01
 P   1 1.00       0.000000000000
      0.7500000000D+00  0.1000000000D+01
 ****
      8 0
 S   3 1.00       0.000000000000
      0.3386500000D+02  0.2549381454D-01
      0.5094790000D+01  0.1903731086D+00
      0.1158790000D+01  0.8521614860D+00
 S   1 1.00       0.000000000000
      0.3258400000D+00  0.1000000000D+01
 S   1 1.00       0.000000000000
      0.1027410000D+00  0.1000000000D+01
 P   1 1.00       0.000000000000
      0.7500000000D+00  0.1000000000D+01
 ****
      9 0
 S   6 1.00       0.000000000000
      0.4563240000D+04  0.1966650249D-02
      0.6820240000D+03  0.1523060193D-01
      0.1549730000D+03  0.7612690966D-01
      0.4445530000D+02  0.2608010331D+00
      0.1302900000D+02  0.6164620782D+00
      0.1827730000D+01  0.2210060280D+00
 SP   3 1.00       0.000000000000
      0.2096420000D+02  0.1146600807D+00  0.4024869267D-01
      0.4803310000D+01  0.9199996477D+00  0.2375939567D+00
      0.1459330000D+01 -0.3030682134D-02  0.8158538515D+00
 SP   1 1.00       0.000000000000
      0.4834560000D+00  0.1000000000D+01  0.1000000000D+01
 SP   1 1.00       0.000000000000
      0.1455850000D+00  0.1000000000D+01  0.1000000000D+01
 D   1 1.00       0.000000000000
      0.6260000000D+00  0.1000000000D+01
 ****
     10 0
 S   6 1.00       0.000000000000
      0.4563240000D+04  0.1966650249D-02
      0.6820240000D+03  0.1523060193D-01
      0.1549730000D+03  0.7612690966D-01
      0.4445530000D+02  0.2608010331D+00
      0.1302900000D+02  0.6164620782D+00
      0.1827730000D+01  0.2210060280D+00
 SP   3 1.00       0.000000000000
      0.2096420000D+02  0.1146600807D+00  0.4024869267D-01
      0.4803310000D+01  0.9199996477D+00  0.2375939567D+00
      0.1459330000D+01 -0.3030682134D-02  0.8158538515D+00
 SP   1 1.00       0.000000000000
      0.4834560000D+00  0.1000000000D+01  0.1000000000D+01
 SP   1 1.00       0.000000000000
      0.1455850000D+00  0.1000000000D+01  0.1000000000D+01
 D   1 1.00       0.000000000000
      0.6260000000D+00  0.1000000000D+01
 ****
     11 0
 S   3 1.00       0.000000000000
      0.3386500000D+02  0.2549381454D-01
      0.5094790000D+01  0.1903731086D+00
      0.1158790000D+01  0.8521614860D+00
 S   1 1.00       0.000000000000
      0.3258400000D+00  0.1000000000D+01
 S   1 1.00       0.000000000000
      0.1027410000D+00  0.1000000000D+01
 P   1 1.00       0.000000000000
      0.7500000000D+00  0.1000000000D+01
 ****
     12 0
 S   3 1.00       0.000000000000
      0.3386500000D+02  0.2549381454D-01
      0.5094790000D+01  0.1903731086D+00
      0.1158790000D+01  0.8521614860D+00
 S   1 1.00       0.000000000000
      0.3258400000D+00  0.1000000000D+01
 S   1 1.00       0.000000000000
      0.1027410000D+00  0.1000000000D+01
 P   1 1.00       0.000000000000
      0.7500000000D+00  0.1000000000D+01
 ****
     13 0
 S   3 1.00       0.000000000000
      0.3386500000D+02  0.2549381454D-01
      0.5094790000D+01  0.1903731086D+00
      0.1158790000D+01  0.8521614860D+00
 S   1 1.00       0.000000000000
      0.3258400000D+00  0.1000000000D+01
 S   1 1.00       0.000000000000
      0.1027410000D+00  0.1000000000D+01
 P   1 1.00       0.000000000000
      0.7500000000D+00  0.1000000000D+01
 ****
     14 0
 S   3 1.00       0.000000000000
      0.3386500000D+02  0.2549381454D-01
      0.5094790000D+01  0.1903731086D+00
      0.1158790000D+01  0.8521614860D+00
 S   1 1.00       0.000000000000
      0.3258400000D+00  0.1000000000D+01
 S   1 1.00       0.000000000000
      0.1027410000D+00  0.1000000000D+01
 P   1 1.00       0.000000000000
      0.7500000000D+00  0.1000000000D+01
 ****
     15 0
 S   3 1.00       0.000000000000
      0.3386500000D+02  0.2549381454D-01
      0.5094790000D+01  0.1903731086D+00
      0.1158790000D+01  0.8521614860D+00
 S   1 1.00       0.000000000000
      0.3258400000D+00  0.1000000000D+01
 S   1 1.00       0.000000000000
      0.1027410000D+00  0.1000000000D+01
 P   1 1.00       0.000000000000
      0.7500000000D+00  0.1000000000D+01
 ****

 There are    98 symmetry adapted cartesian basis functions of A   symmetry.
 There are    90 symmetry adapted cartesian basis functions of B   symmetry.
 There are    92 symmetry adapted basis functions of A   symmetry.
 There are    86 symmetry adapted basis functions of B   symmetry.
   178 basis functions,   289 primitive gaussians,   188 cartesian basis functions
    32 alpha electrons       32 beta electrons
       nuclear repulsion energy       320.7392817687 Hartrees.
 NAtoms=   15 NActive=   15 NUniq=    8 SFac= 3.52D+00 NAtFMM=   60 NAOKFM=F Big=F
 Integral buffers will be    131072 words long.
 Raffenetti 1 integral format.
 Two-electron integral symmetry is turned on.
 One-electron integrals computed using PRISM.
 NBasis=   178 RedAO= T EigKep=  2.91D-03  NBF=    92    86
 NBsUse=   178 1.00D-06 EigRej= -1.00D+00 NBFU=    92    86
 ExpMin= 5.11D-02 ExpMax= 3.16D+05 ExpMxC= 1.12D+04 IAcc=2 IRadAn=         4 AccDes= 0.00D+00
 Harris functional with IExCor=  205 and IRadAn=       4 diagonalized for initial guess.
 HarFok:  IExCor=  205 AccDes= 0.00D+00 IRadAn=         4 IDoV= 1 UseB2=F ITyADJ=14
 ICtDFT=  3500011 ScaDFX=  1.000000  1.000000  1.000000  1.000000
 FoFCou: FMM=F IPFlag=           0 FMFlag=      100000 FMFlg1=           0
         NFxFlg=           0 DoJE=T BraDBF=F KetDBF=T FulRan=T
         wScrn=  0.000000 ICntrl=     500 IOpCl=  0 I1Cent=   200000004 NGrid=           0
         NMat0=    1 NMatS0=      1 NMatT0=    0 NMatD0=    1 NMtDS0=    0 NMtDT0=    0
 Petite list used in FoFCou.
 Initial guess orbital symmetries:
       Occupied  (A) (A) (B) (B) (A) (A) (B) (A) (B) (A) (B) (B)
                 (A) (A) (B) (A) (B) (B) (A) (A) (B) (A) (B) (B)
                 (A) (A) (A) (B) (A) (B) (B) (A)
       Virtual   (A) (B) (A) (B) (A) (A) (B) (A) (B) (B) (A) (B)
                 (A) (A) (A) (B) (B) (A) (B) (A) (A) (B) (A) (B)
                 (B) (B) (A) (A) (B) (A) (B) (A) (B) (B) (A) (A)
                 (B) (A) (B) (A) (B) (A) (A) (B) (B) (A) (B) (A)
                 (B) (A) (A) (B) (B) (A) (A) (A) (B) (A) (B) (B)
                 (B) (A) (B) (A) (B) (A) (A) (B) (A) (B) (A) (B)
                 (B) (A) (B) (A) (A) (B) (B) (A) (B) (A) (B) (A)
                 (A) (B) (B) (A) (B) (A) (A) (B) (B) (A) (A) (B)
                 (B) (B) (A) (A) (A) (B) (A) (B) (B) (A) (B) (A)
                 (B) (A) (B) (A) (A) (B) (B) (A) (A) (B) (A) (B)
                 (A) (A) (B) (A) (B) (B) (A) (B) (B) (A) (A) (B)
                 (A) (B) (A) (B) (B) (A) (A) (B) (A) (B) (A) (B)
                 (A) (A)
 The electronic state of the initial guess is 1-A.
 Keep R1 ints in memory in symmetry-blocked form, NReq=190515078.
 Requested convergence on RMS density matrix=1.00D-08 within  64 cycles.
 Requested convergence on MAX density matrix=1.00D-06.
 Requested convergence on             energy=1.00D-06.
 No special actions if energy rises.
 SCF Done:  E(RHF) =  -1934.97214097     A.U. after   13 cycles
            NFock= 13  Conv=0.35D-08     -V/T= 1.9996
 QCSCF skips out because SCF is already converged.

 **********************************************************************

            Population analysis using the SCF density.

 **********************************************************************

 Orbital symmetries:
       Occupied  (A) (A) (B) (A) (B) (A) (B) (B) (A) (A) (B) (A)
                 (B) (A) (B) (A) (B) (B) (A) (B) (A) (A) (A) (B)
                 (A) (B) (B) (A) (A) (B) (A) (B)
       Virtual   (A) (B) (A) (B) (A) (A) (B) (B) (B) (A) (A) (B)
                 (A) (A) (A) (B) (B) (A) (A) (B) (B) (A) (B) (A)
                 (B) (B) (A) (A) (B) (A) (B) (A) (B) (B) (A) (A)
                 (B) (A) (B) (A) (B) (A) (A) (B) (B) (A) (B) (A)
                 (B) (A) (A) (B) (B) (A) (A) (B) (A) (B) (B) (A)
                 (B) (A) (B) (A) (B) (B) (A) (A) (A) (B) (A) (B)
                 (B) (A) (B) (A) (A) (B) (B) (B) (A) (A) (B) (A)
                 (A) (B) (B) (A) (A) (B) (B) (A) (B) (A) (A) (B)
                 (B) (A) (B) (A) (B) (A) (A) (B) (B) (A) (B) (A)
                 (B) (A) (B) (A) (A) (B) (B) (A) (A) (B) (A) (B)
                 (A) (A) (B) (A) (B) (A) (B) (B) (B) (A) (A) (B)
                 (A) (B) (A) (B) (B) (A) (A) (B) (A) (B) (A) (B)
                 (A) (A)
 The electronic state is 1-A.
 Alpha  occ. eigenvalues -- -353.30431 -44.34519 -38.93708 -38.93692 -38.93347
 Alpha  occ. eigenvalues --  -11.20936 -11.20936 -11.18471 -11.18470  -5.63275
 Alpha  occ. eigenvalues --   -3.84016  -3.83984  -3.83676  -0.99493  -0.98999
 Alpha  occ. eigenvalues --   -0.83270  -0.80811  -0.78910  -0.78874  -0.78414
 Alpha  occ. eigenvalues --   -0.78334  -0.75098  -0.58066  -0.57663  -0.55811
 Alpha  occ. eigenvalues --   -0.55581  -0.48984  -0.48717  -0.47125  -0.46785
 Alpha  occ. eigenvalues --   -0.40116  -0.33662
 Alpha virt. eigenvalues --    0.11054   0.16416   0.19313   0.19578   0.20751
 Alpha virt. eigenvalues --    0.21910   0.22477   0.24605   0.25125   0.25412
 Alpha virt. eigenvalues --    0.28137   0.35597   0.36518   0.37808   0.40722
 Alpha virt. eigenvalues --    0.44127   0.46740   0.47066   0.48424   0.48513
 Alpha virt. eigenvalues --    0.49758   0.50148   0.63517   0.64767   0.75814
 Alpha virt. eigenvalues --    0.77098   0.78263   0.81117   0.81677   0.81767
 Alpha virt. eigenvalues --    0.81824   0.81836   0.82486   0.84733   0.84974
 Alpha virt. eigenvalues --    0.87959   0.91162   0.98993   1.02381   1.13887
 Alpha virt. eigenvalues --    1.21256   1.21495   1.21727   1.21882   1.45157
 Alpha virt. eigenvalues --    1.50554   1.52448   1.52857   1.56454   1.61689
 Alpha virt. eigenvalues --    1.66950   1.69188   1.73343   1.73534   1.74375
 Alpha virt. eigenvalues --    1.74379   1.74755   1.76057   1.77812   1.77973
 Alpha virt. eigenvalues --    1.79262   1.82001   1.82763   1.85005   1.91666
 Alpha virt. eigenvalues --    1.98513   1.98576   1.99193   2.02443   2.03897
 Alpha virt. eigenvalues --    2.05501   2.10348   2.12026   2.14388   2.24158
 Alpha virt. eigenvalues --    2.27183   2.29460   2.31399   2.36581   2.37848
 Alpha virt. eigenvalues --    2.38634   2.39792   2.45620   2.51477   2.58180
 Alpha virt. eigenvalues --    2.61790   2.62674   2.63260   2.69463   2.70299
 Alpha virt. eigenvalues --    2.72371   2.75448   2.75843   2.79191   2.80759
 Alpha virt. eigenvalues --    2.83936   2.85629   2.90634   2.93319   2.93735
 Alpha virt. eigenvalues --    2.94660   2.96706   2.98572   2.98704   2.99235
 Alpha virt. eigenvalues --    3.01792   3.11598   3.12123   3.37242   3.48958
 Alpha virt. eigenvalues --    3.56608   3.88618   4.14359   4.16288   4.19185
 Alpha virt. eigenvalues --    4.19279   4.19452   4.19573   4.36200   4.56434
 Alpha virt. eigenvalues --    4.60129   4.75864   4.75864   4.77300   4.77546
 Alpha virt. eigenvalues --    4.81385   4.81560   5.00969   8.40678   8.41760
 Alpha virt. eigenvalues --    8.55807   8.57328   8.98834  10.75350  10.76866
 Alpha virt. eigenvalues --   11.16164  25.00615  25.01189  25.08307  25.08423
 Alpha virt. eigenvalues --   35.44566  45.85490  45.86504  46.14539 190.53341
 Alpha virt. eigenvalues --  986.11819
          Condensed to atoms (all electrons):
               1          2          3          4          5          6
     1  Zn  28.467115   0.196092  -0.022763  -0.019662  -0.019870   0.005417
     2  C    0.196092   5.950082   0.208799   0.382263   0.381982  -0.037665
     3  C   -0.022763   0.208799   4.805026  -0.033865  -0.033512   0.421165
     4  H   -0.019662   0.382263  -0.033865   0.582862  -0.027202  -0.007710
     5  H   -0.019870   0.381982  -0.033512  -0.027202   0.583012  -0.007713
     6  H    0.005417  -0.037665   0.421165  -0.007710  -0.007713   0.603129
     7  H   -0.004858  -0.046011   0.418232  -0.004625   0.007841  -0.032436
     8  H   -0.004829  -0.045839   0.418062   0.007814  -0.004587  -0.032387
     9  C    0.196092  -0.065847   0.002806   0.000606   0.000453  -0.000092
    10  C   -0.022763   0.002806  -0.000017  -0.000031  -0.000023   0.000001
    11  H   -0.019662   0.000606  -0.000031  -0.000032   0.000057  -0.000001
    12  H   -0.019870   0.000453  -0.000023   0.000057   0.000014   0.000000
    13  H    0.005417  -0.000092   0.000001  -0.000001   0.000000   0.000000
    14  H   -0.004858   0.000086  -0.000001   0.000038  -0.000001   0.000000
    15  H   -0.004829   0.000102  -0.000001  -0.000008   0.000064   0.000000
               7          8          9         10         11         12
     1  Zn  -0.004858  -0.004829   0.196092  -0.022763  -0.019662  -0.019870
     2  C   -0.046011  -0.045839  -0.065847   0.002806   0.000606   0.000453
     3  C    0.418232   0.418062   0.002806  -0.000017  -0.000031  -0.000023
     4  H   -0.004625   0.007814   0.000606  -0.000031  -0.000032   0.000057
     5  H    0.007841  -0.004587   0.000453  -0.000023   0.000057   0.000014
     6  H   -0.032436  -0.032387  -0.000092   0.000001  -0.000001   0.000000
     7  H    0.620593  -0.032590   0.000086  -0.000001   0.000038  -0.000001
     8  H   -0.032590   0.620420   0.000102  -0.000001  -0.000008   0.000064
     9  C    0.000086   0.000102   5.950082   0.208799   0.382263   0.381982
    10  C   -0.000001  -0.000001   0.208799   4.805026  -0.033865  -0.033512
    11  H    0.000038  -0.000008   0.382263  -0.033865   0.582862  -0.027202
    12  H   -0.000001   0.000064   0.381982  -0.033512  -0.027202   0.583012
    13  H    0.000000   0.000000  -0.037665   0.421165  -0.007710  -0.007713
    14  H    0.000000   0.000002  -0.046011   0.418232  -0.004625   0.007841
    15  H    0.000002  -0.000002  -0.045839   0.418062   0.007814  -0.004587
              13         14         15
     1  Zn   0.005417  -0.004858  -0.004829
     2  C   -0.000092   0.000086   0.000102
     3  C    0.000001  -0.000001  -0.000001
     4  H   -0.000001   0.000038  -0.000008
     5  H    0.000000  -0.000001   0.000064
     6  H    0.000000   0.000000   0.000000
     7  H    0.000000   0.000000   0.000002
     8  H    0.000000   0.000002  -0.000002
     9  C   -0.037665  -0.046011  -0.045839
    10  C    0.421165   0.418232   0.418062
    11  H   -0.007710  -0.004625   0.007814
    12  H   -0.007713   0.007841  -0.004587
    13  H    0.603129  -0.032436  -0.032387
    14  H   -0.032436   0.620593  -0.032590
    15  H   -0.032387  -0.032590   0.620420
 Mulliken charges:
               1
     1  Zn   1.273829
     2  C   -0.927817
     3  C   -0.183879
     4  H    0.119495
     5  H    0.119484
     6  H    0.088292
     7  H    0.073730
     8  H    0.073781
     9  C   -0.927817
    10  C   -0.183879
    11  H    0.119495
    12  H    0.119484
    13  H    0.088292
    14  H    0.073730
    15  H    0.073781
 Sum of Mulliken charges =   0.00000
 Mulliken charges with hydrogens summed into heavy atoms:
               1
     1  Zn   1.273829
     2  C   -0.688838
     3  C    0.051924
     9  C   -0.688838
    10  C    0.051924
 Electronic spatial extent (au):  <R**2>=            969.3696
 Charge=              0.0000 electrons
 Dipole moment (field-independent basis, Debye):
    X=              0.0000    Y=              0.0000    Z=              0.0741  Tot=              0.0741
 Quadrupole moment (field-independent basis, Debye-Ang):
   XX=            -42.5517   YY=            -51.1619   ZZ=            -41.0454
   XY=             -1.1288   XZ=              0.0000   YZ=              0.0000
 Traceless Quadrupole moment (field-independent basis, Debye-Ang):
   XX=              2.3680   YY=             -6.2422   ZZ=              3.8742
   XY=             -1.1288   XZ=              0.0000   YZ=              0.0000
 Octapole moment (field-independent basis, Debye-Ang**2):
  XXX=              0.0000  YYY=              0.0000  ZZZ=              3.7579  XYY=              0.0000
  XXY=              0.0000  XXZ=              1.9444  XZZ=              0.0000  YZZ=              0.0000
  YYZ=              1.2432  XYZ=              1.0395
 Hexadecapole moment (field-independent basis, Debye-Ang**3):
 XXXX=           -266.9813 YYYY=          -1096.7339 ZZZZ=            -77.8272 XXXY=           -175.7085
 XXXZ=              0.0000 YYYX=           -176.8701 YYYZ=              0.0000 ZZZX=              0.0000
 ZZZY=              0.0000 XXYY=           -234.8886 XXZZ=            -54.8556 YYZZ=           -191.6528
 XXYZ=              0.0000 YYXZ=              0.0000 ZZXY=            -56.5404
 N-N= 3.207392817687D+02 E-N=-5.269569511914D+03  KE= 1.935830116382D+03
 Symmetry A    KE= 1.417216800086D+03
 Symmetry B    KE= 5.186133162961D+02

 Atomic contributions to Alpha molecular orbitals:
 Alpha occ 1 OE=-353.304 is Zn1-s=1.00
 Alpha occ 2 OE=-44.345 is Zn1-s=1.00
 Alpha occ 3 OE=-38.937 is Zn1-p=1.00
 Alpha occ 4 OE=-38.937 is Zn1-p=1.00
 Alpha occ 5 OE=-38.933 is Zn1-p=1.00
 Alpha occ 6 OE=-11.209 is C10-s=0.50 C3-s=0.50
 Alpha occ 7 OE=-11.209 is C10-s=0.50 C3-s=0.50
 Alpha occ 8 OE=-11.185 is C2-s=0.50 C9-s=0.50
 Alpha occ 9 OE=-11.185 is C9-s=0.50 C2-s=0.50
 Alpha occ 10 OE=-5.633 is Zn1-s=1.00
 Alpha occ 11 OE=-3.840 is Zn1-p=1.00
 Alpha occ 12 OE=-3.840 is Zn1-p=1.00
 Alpha occ 13 OE=-3.837 is Zn1-p=1.00
 Alpha occ 14 OE=-0.995 is C3-s=0.19 C10-s=0.19 C9-s=0.17 C2-s=0.17 H7-s=0.02 H14-s=0.02 H8-s=0.02 H15-s=0.02 H6-s=0.02 H13-s=0.02 H12-s=0.02 H5-s=0.02 H11-s=0.02 H4-s=0.02 Zn1-d=0.02
 Alpha occ 15 OE=-0.990 is C10-s=0.20 C3-s=0.20 C9-s=0.17 C2-s=0.17 H14-s=0.03 H7-s=0.03 H15-s=0.03 H8-s=0.03 H6-s=0.03 H13-s=0.03 H11-s=0.02 H4-s=0.02 H5-s=0.02 H12-s=0.02 C2-p=0.01 C9-p=0.01
 Alpha occ 16 OE=-0.833 is Zn1-d=0.26 C2-s=0.11 C9-s=0.11 C3-s=0.09 C10-s=0.09 C9-p=0.03 C2-p=0.03 H6-s=0.02 H13-s=0.02 H11-s=0.02 H4-s=0.02 H12-s=0.02 H5-s=0.02 H14-s=0.02 H7-s=0.02 H15-s=0.02 H8-s=0.
 02 C3-p=0.02 C10-p=0.02
 Alpha occ 17 OE=-0.808 is C9-s=0.16 C2-s=0.16 C3-s=0.09 C10-s=0.09 H12-s=0.04 H5-s=0.04 H4-s=0.04 H11-s=0.04 C3-p=0.04 C10-p=0.04 H8-s=0.03 H15-s=0.03 H7-s=0.03 H14-s=0.03 H13-s=0.03 H6-s=0.03 C9-p=0.
 02 C2-p=0.02
 Alpha occ 18 OE=-0.789 is Zn1-d=1.00
 Alpha occ 19 OE=-0.789 is Zn1-d=1.00
 Alpha occ 20 OE=-0.784 is Zn1-d=0.97 C9-p=0.01 C2-p=0.01
 Alpha occ 21 OE=-0.783 is Zn1-d=0.97
 Alpha occ 22 OE=-0.751 is Zn1-d=0.67 C2-s=0.03 C9-s=0.03 Zn1-s=0.02 H4-s=0.02 H11-s=0.02 H5-s=0.02 H12-s=0.02 C9-p=0.02 C2-p=0.02 C10-p=0.02 C3-p=0.02 C10-s=0.01 C3-s=0.01
 Alpha occ 23 OE=-0.581 is C10-p=0.15 C3-p=0.15 C9-p=0.14 C2-p=0.14 H8-s=0.06 H15-s=0.06 H14-s=0.06 H7-s=0.06 H11-s=0.04 H4-s=0.04 H12-s=0.04 H5-s=0.04
 Alpha occ 24 OE=-0.577 is C10-p=0.16 C3-p=0.16 C2-p=0.12 C9-p=0.12 H14-s=0.06 H7-s=0.06 H15-s=0.06 H8-s=0.06 H5-s=0.04 H12-s=0.04 H11-s=0.04 H4-s=0.04 Zn1-d=0.01
 Alpha occ 25 OE=-0.558 is C10-p=0.22 C3-p=0.22 H6-s=0.13 H13-s=0.13 C2-p=0.06 C9-p=0.06 Zn1-s=0.04 H14-s=0.02 H7-s=0.02 H15-s=0.02 H8-s=0.02 Zn1-d=0.02
 Alpha occ 26 OE=-0.556 is C3-p=0.24 C10-p=0.24 H13-s=0.14 H6-s=0.14 C2-p=0.07 C9-p=0.07 H8-s=0.02 H15-s=0.02 H7-s=0.02 H14-s=0.02
 Alpha occ 27 OE=-0.490 is C2-p=0.19 C9-p=0.19 C10-p=0.18 C3-p=0.18 H14-s=0.03 H7-s=0.03 H5-s=0.03 H12-s=0.03 H15-s=0.03 H8-s=0.03 H4-s=0.02 H11-s=0.02
 Alpha occ 28 OE=-0.487 is C2-p=0.19 C9-p=0.19 C3-p=0.19 C10-p=0.19 H15-s=0.03 H8-s=0.03 H4-s=0.03 H11-s=0.03 H5-s=0.02 H12-s=0.02 H7-s=0.02 H14-s=0.02
 Alpha occ 29 OE=-0.471 is C9-p=0.14 C2-p=0.14 C3-p=0.10 C10-p=0.10 H5-s=0.07 H12-s=0.07 H11-s=0.06 H4-s=0.06 H7-s=0.06 H14-s=0.06 H15-s=0.05 H8-s=0.05
 Alpha occ 30 OE=-0.468 is C2-p=0.14 C9-p=0.14 C3-p=0.09 C10-p=0.09 H4-s=0.08 H11-s=0.08 H12-s=0.07 H5-s=0.07 H15-s=0.06 H8-s=0.06 H14-s=0.05 H7-s=0.05
 Alpha occ 31 OE=-0.401 is Zn1-s=0.31 C2-p=0.21 C9-p=0.21 H13-s=0.04 H6-s=0.04 C3-p=0.03 C10-p=0.03 Zn1-d=0.02 H11-s=0.01 H4-s=0.01 H5-s=0.01 H12-s=0.01
 Alpha occ 32 OE=-0.337 is C2-p=0.36 C9-p=0.36 C9-s=0.04 C2-s=0.04 H6-s=0.03 H13-s=0.03 C3-p=0.02 C10-p=0.02 Zn1-p=0.02 H11-s=0.01 H4-s=0.01 H5-s=0.01 H12-s=0.01
 Alpha vir 33 OE=0.111 is Zn1-s=0.79 H11-s=0.03 H4-s=0.03 H12-s=0.03 H5-s=0.03 C9-s=-0.03 C2-s=-0.03 H8-s=0.03 H15-s=0.03 H14-s=0.03 H7-s=0.03 C3-s=-0.02 C10-s=-0.02 C2-p=0.02 C9-p=0.02 Zn1-d=0.02
 Alpha vir 34 OE=0.164 is H7-s=0.23 H14-s=0.23 H13-s=0.18 H6-s=0.18 H8-s=0.18 H15-s=0.18 C10-s=-0.17 C3-s=-0.17 C9-p=0.05 C2-p=0.05 H11-s=0.03 H4-s=0.03 H12-s=0.02 H5-s=0.02 C9-s=-0.01 C2-s=-0.01
 Alpha vir 35 OE=0.193 is H13-s=0.28 H6-s=0.28 H15-s=0.25 H8-s=0.25 C3-s=-0.12 C10-s=-0.12 H7-s=0.05 H14-s=0.05 Zn1-s=0.05 C3-p=-0.03 C10-p=-0.03 C9-p=0.01 C2-p=0.01 H11-s=0.01 H4-s=0.01
 Alpha vir 36 OE=0.196 is H12-s=0.30 H5-s=0.30 H11-s=0.22 H4-s=0.22 C9-s=-0.09 C2-s=-0.09 H7-s=0.05 H14-s=0.05 C9-p=-0.03 C2-p=-0.03 H8-s=0.03 H15-s=0.03 H13-s=0.01 H6-s=0.01
 Alpha vir 37 OE=0.208 is H14-s=0.21 H7-s=0.21 H11-s=0.14 H4-s=0.14 H15-s=0.11 H8-s=0.11 C10-p=-0.06 C3-p=-0.06 H13-s=0.06 H6-s=0.06 H12-s=0.05 H5-s=0.05 C9-p=-0.02 C2-p=-0.02
 Alpha vir 38 OE=0.219 is H12-s=0.19 H5-s=0.19 H14-s=0.15 H7-s=0.15 H11-s=0.12 H4-s=0.12 H13-s=0.10 H6-s=0.10 C3-p=-0.05 C10-p=-0.05 H15-s=0.04 H8-s=0.04 C2-s=-0.03 C9-s=-0.03 C2-p=-0.03 C9-p=-0.03
 Alpha vir 39 OE=0.225 is H15-s=0.21 H8-s=0.21 H7-s=0.14 H14-s=0.14 H4-s=0.14 H11-s=0.14 H12-s=0.08 H5-s=0.08 C10-p=-0.05 C3-p=-0.05 C2-p=-0.03 C9-p=-0.03
 Alpha vir 40 OE=0.246 is H6-s=0.38 H13-s=0.38 H8-s=0.07 H15-s=0.07 C10-p=-0.05 C3-p=-0.05 H14-s=0.04 H7-s=0.04 H5-s=0.03 H12-s=0.03 H4-s=0.03 H11-s=0.03 C2-s=-0.02 C9-s=-0.02
 Alpha vir 41 OE=0.251 is H11-s=0.16 H4-s=0.16 H5-s=0.15 H12-s=0.15 H8-s=0.10 H15-s=0.10 H14-s=0.10 H7-s=0.10 C9-p=-0.01 C2-p=-0.01
 Alpha vir 42 OE=0.254 is H4-s=0.17 H11-s=0.17 H5-s=0.17 H12-s=0.17 H8-s=0.08 H15-s=0.08 H7-s=0.07 H14-s=0.07 C2-p=0.01 C9-p=0.01
 Alpha vir 43 OE=0.281 is H6-s=0.13 H13-s=0.13 H12-s=0.12 H5-s=0.12 Zn1-s=0.10 H4-s=0.10 H11-s=0.10 H7-s=0.06 H14-s=0.06 H15-s=0.04 H8-s=0.04 C2-s=-0.02 C9-s=-0.02 C3-p=0.01 C10-p=0.01
 Alpha vir 44 OE=0.356 is C2-p=0.34 C9-p=0.34 C10-p=0.10 C3-p=0.10 H13-s=0.02 H6-s=0.02 H14-s=0.02 H7-s=0.02 Zn1-p=0.01 C9-s=-0.01 C2-s=-0.01
 Alpha vir 45 OE=0.365 is Zn1-s=0.79 C2-p=0.05 C9-p=0.05 H5-s=0.02 H12-s=0.02
 Alpha vir 46 OE=0.378 is C2-p=0.30 C9-p=0.30 H11-s=0.09 H4-s=0.09 H5-s=0.05 H12-s=0.05 C3-p=0.03 C10-p=0.03 Zn1-p=0.02 H15-s=0.02 H8-s=0.02 C2-d=-0.01 C9-d=-0.01
 Alpha vir 47 OE=0.407 is C10-p=0.27 C3-p=0.27 C9-p=0.21 C2-p=0.21 H5-s=0.01 H12-s=0.01 C9-s=-0.01 C2-s=-0.01 Zn1-s=0.01
 Alpha vir 48 OE=0.441 is C10-p=0.36 C3-p=0.36 H6-s=0.06 H13-s=0.06 C2-p=0.04 C9-p=0.04 H12-s=0.03 H5-s=0.03
 Alpha vir 49 OE=0.467 is C10-p=0.25 C3-p=0.25 H8-s=0.10 H15-s=0.10 H14-s=0.07 H7-s=0.07 H11-s=0.03 H4-s=0.03 H5-s=0.03 H12-s=0.03 C9-p=0.01 C2-p=0.01
 Alpha vir 50 OE=0.471 is C3-p=0.32 C10-p=0.32 H7-s=0.12 H14-s=0.12 H15-s=0.07 H8-s=0.07 C9-p=-0.02 C2-p=-0.02
 Alpha vir 51 OE=0.484 is C10-p=0.32 C3-p=0.32 H13-s=0.09 H6-s=0.09 H15-s=0.06 H8-s=0.06 C9-p=0.04 C2-p=0.04 Zn1-s=-0.03 H7-s=0.01 H14-s=0.01
 Alpha vir 52 OE=0.485 is C3-p=0.34 C10-p=0.34 C9-p=0.06 C2-p=0.06 H7-s=0.04 H14-s=0.04 H13-s=0.04 H6-s=0.04 H15-s=0.02 H8-s=0.02
 Alpha vir 53 OE=0.498 is C2-p=0.27 C9-p=0.27 C10-p=0.09 C3-p=0.09 H11-s=0.08 H4-s=0.08 H12-s=0.04 H5-s=0.04
 Alpha vir 54 OE=0.501 is C9-p=0.21 C2-p=0.21 C10-p=0.21 C3-p=0.21 H6-s=0.03 H13-s=0.03 H12-s=0.03 H5-s=0.03
 Alpha vir 55 OE=0.635 is C2-p=0.27 C9-p=0.27 C9-s=0.09 C2-s=0.09 H5-s=0.06 H12-s=0.06 H4-s=0.06 H11-s=0.06 C3-p=-0.03 C10-p=-0.03 C2-d=0.02 C9-d=0.02 H13-s=-0.01 H6-s=-0.01 H8-s=0.01 H15-s=0.01 H7-s=0
 .01 H14-s=0.01
 Alpha vir 56 OE=0.648 is C9-p=0.29 C2-p=0.29 C9-s=0.08 C2-s=0.08 H4-s=0.05 H11-s=0.05 H12-s=0.05 H5-s=0.05 Zn1-s=-0.02 Zn1-d=0.02 C10-p=-0.02 C3-p=-0.02 H15-s=0.02 H8-s=0.02 H7-s=0.02 H14-s=0.02
 Alpha vir 57 OE=0.758 is C2-p=0.30 C9-p=0.30 C10-p=0.09 C3-p=0.09 H12-s=0.03 H5-s=0.03 H11-s=0.03 H4-s=0.03 C2-s=0.03 C9-s=0.03
 Alpha vir 58 OE=0.771 is H13-s=0.12 H6-s=0.12 C3-s=0.10 C10-s=0.10 C2-p=0.10 C9-p=0.10 H7-s=0.06 H14-s=0.06 H15-s=0.05 H8-s=0.05 H6-p=0.01 H13-p=0.01 C2-s=0.01 C9-s=0.01
 Alpha vir 59 OE=0.783 is H13-s=0.11 H6-s=0.11 C3-s=0.11 C10-s=0.11 H15-s=0.09 H8-s=0.09 H7-s=0.08 H14-s=0.08 C9-p=0.07 C2-p=0.07 C10-p=0.02 C3-p=0.02
 Alpha vir 60 OE=0.811 is C9-p=0.28 C2-p=0.28 C10-p=0.24 C3-p=0.24 H8-s=-0.02 H15-s=-0.02 H14-s=-0.01 H7-s=-0.01 H11-s=-0.01 H4-s=-0.01
 Alpha vir 61 OE=0.817 is C3-p=0.37 C10-p=0.37 H15-s=0.05 H8-s=0.05 C9-p=0.04 C2-p=0.04 H4-s=0.03 H11-s=0.03 H13-s=-0.02 H6-s=-0.02 H14-s=0.01 H7-s=0.01 H12-s=-0.01 H5-s=-0.01 H15-p=0.01 H8-p=0.01
 Alpha vir 62 OE=0.818 is C10-p=0.42 C3-p=0.42 C2-p=0.02 C9-p=0.02 H4-s=0.02 H11-s=0.02
 Alpha vir 63 OE=0.818 is C3-p=0.47 C10-p=0.47 H14-p=0.01 H7-p=0.01
 Alpha vir 64 OE=0.818 is C10-p=0.26 C3-p=0.26 C9-p=0.12 C2-p=0.12 H4-s=0.03 H11-s=0.03 H5-s=0.02 H12-s=0.02 H14-s=0.02 H7-s=0.02 H15-s=0.01 H8-s=0.01
 Alpha vir 65 OE=0.825 is C2-p=0.41 C9-p=0.41 C3-p=0.07 C10-p=0.07 H12-s=0.02 H5-s=0.02 H4-s=-0.02 H11-s=-0.02 H12-p=0.01 H5-p=0.01
 Alpha vir 66 OE=0.847 is C9-p=0.27 C2-p=0.27 C10-p=0.24 C3-p=0.24 C9-s=-0.02 C2-s=-0.02 C3-s=-0.02 C10-s=-0.02 H4-p=0.01 H11-p=0.01
 Alpha vir 67 OE=0.850 is C9-p=0.38 C2-p=0.38 C3-p=0.14 C10-p=0.14 C3-s=-0.03 C10-s=-0.03 C9-s=-0.02 C2-s=-0.02 H12-p=0.01 H5-p=0.01
 Alpha vir 68 OE=0.880 is C9-p=0.25 C2-p=0.25 C10-p=0.20 C3-p=0.20 C2-s=0.05 C9-s=0.05 Zn1-s=-0.05 C3-s=-0.02 C10-s=-0.02 H11-s=0.02 H4-s=0.02 H6-s=-0.02 H13-s=-0.02 H5-s=0.01 H12-s=0.01 C10-d=0.01 C3-
 d=0.01
 Alpha vir 69 OE=0.912 is C2-s=0.49 C9-s=0.49 C10-s=0.09 C3-s=0.09 H5-s=-0.05 H12-s=-0.05 H11-s=-0.05 H4-s=-0.05 H13-s=-0.05 H6-s=-0.05 C2-p=0.02 C9-p=0.02 Zn1-p=0.02 H8-s=-0.02 H15-s=-0.02 H7-s=-0.02 
 H14-s=-0.02 H12-p=0.02 H5-p=0.02 H4-p=0.02 H11-p=0.02 C10-d=0.01 C3-d=0.01 C3-p=0.01 C10-p=0.01
 Alpha vir 70 OE=0.990 is C10-s=0.84 C3-s=0.84 C9-p=-0.08 C2-p=-0.08 H6-s=-0.07 H13-s=-0.07 H14-s=-0.07 H7-s=-0.07 H8-s=-0.07 H15-s=-0.07 C9-s=-0.06 C2-s=-0.06
 Alpha vir 71 OE=1.024 is C3-s=0.76 C10-s=0.76 C2-p=-0.13 C9-p=-0.13 H8-s=-0.07 H15-s=-0.07 H7-s=-0.06 H14-s=-0.06 H6-s=-0.04 H13-s=-0.04 C9-s=0.02 C2-s=0.02 Zn1-p=0.02
 Alpha vir 72 OE=1.139 is C9-s=0.74 C2-s=0.74 C3-p=-0.10 C10-p=-0.10 H4-s=-0.05 H11-s=-0.05 Zn1-s=-0.05 H12-s=-0.04 H5-s=-0.04 C9-p=-0.02 C2-p=-0.02 H6-s=-0.01 H13-s=-0.01
 Alpha vir 73 OE=1.213 is C10-d=0.14 C3-d=0.14 C2-d=0.13 C9-d=0.13 H6-p=0.05 H13-p=0.05 Zn1-d=0.05 H8-p=0.04 H15-p=0.04 H14-p=0.04 H7-p=0.04 H4-p=0.04 H11-p=0.04 H5-p=0.03 H12-p=0.03
 Alpha vir 74 OE=1.215 is C3-d=0.14 C10-d=0.14 C2-d=0.12 C9-d=0.12 H14-p=0.05 H7-p=0.05 H12-p=0.04 H5-p=0.04 H6-p=0.04 H13-p=0.04 H15-p=0.04 H8-p=0.04 H11-p=0.04 H4-p=0.04 Zn1-d=0.03
 Alpha vir 75 OE=1.217 is C3-d=0.15 C10-d=0.15 C9-d=0.12 C2-d=0.12 H8-p=0.06 H15-p=0.06 H6-p=0.05 H13-p=0.05 H14-p=0.04 H7-p=0.04 H4-p=0.04 H11-p=0.04 H5-p=0.03 H12-p=0.03 Zn1-p=0.02
 Alpha vir 76 OE=1.219 is C10-d=0.14 C3-d=0.14 C2-d=0.12 C9-d=0.12 H7-p=0.05 H14-p=0.05 H8-p=0.05 H15-p=0.05 H12-p=0.04 H5-p=0.04 H4-p=0.04 H11-p=0.04 H13-p=0.04 H6-p=0.04 Zn1-p=0.01
 Alpha vir 77 OE=1.452 is C2-d=0.23 C9-d=0.23 Zn1-p=0.13 C2-s=0.11 C9-s=0.11 H5-p=0.04 H12-p=0.04 H4-p=0.04 H11-p=0.04 C10-d=0.03 C3-d=0.03 C3-p=-0.02 C10-p=-0.02 C3-s=-0.01 C10-s=-0.01
 Alpha vir 78 OE=1.506 is H4-p=0.12 H11-p=0.12 C9-d=0.10 C2-d=0.10 H8-p=0.08 H15-p=0.08 H5-p=0.07 H12-p=0.07 C10-d=0.05 C3-d=0.05 H7-p=0.04 H14-p=0.04 Zn1-p=0.03 Zn1-d=0.01
 Alpha vir 79 OE=1.524 is H5-p=0.11 H12-p=0.11 H7-p=0.10 H14-p=0.10 C9-d=0.08 C2-d=0.08 H15-p=0.07 H8-p=0.07 H11-p=0.06 H4-p=0.06 C3-d=0.06 C10-d=0.06 C2-p=0.01 C9-p=0.01
 Alpha vir 80 OE=1.529 is Zn1-d=0.12 C9-d=0.12 C2-d=0.12 H6-p=0.08 H13-p=0.08 C10-d=0.07 C3-d=0.07 H5-p=0.07 H12-p=0.07 H14-p=0.05 H7-p=0.05 H4-p=0.02 H11-p=0.02 C2-p=0.02 C9-p=0.02
 Alpha vir 81 OE=1.565 is Zn1-p=0.16 C9-d=0.11 C2-d=0.11 H13-p=0.09 H6-p=0.09 H11-p=0.08 H4-p=0.08 H8-p=0.05 H15-p=0.05 C10-d=0.03 C3-d=0.03 H5-p=0.03 H12-p=0.03 H14-p=0.01 H7-p=0.01
 Alpha vir 82 OE=1.617 is Zn1-d=0.24 C2-d=0.24 C9-d=0.24 H13-p=0.04 H6-p=0.04 H12-p=0.03 H5-p=0.03 H11-p=0.03 H4-p=0.03 C2-p=0.01 C9-p=0.01 H14-p=0.01 H7-p=0.01
 Alpha vir 83 OE=1.669 is Zn1-p=0.20 C9-d=0.12 C2-d=0.12 H4-p=0.09 H11-p=0.09 H12-p=0.08 H5-p=0.08 H11-s=0.03 H4-s=0.03 H14-p=0.03 H7-p=0.03 H12-s=0.02 H5-s=0.02 H8-p=0.02 H15-p=0.02 Zn1-d=0.02 C10-d=0
 .01 C3-d=0.01 C9-p=-0.01 C2-p=-0.01
 Alpha vir 84 OE=1.692 is C3-d=0.19 C10-d=0.19 Zn1-p=0.10 Zn1-d=0.09 C2-d=0.08 C9-d=0.08 H13-s=0.05 H6-s=0.05 C10-p=-0.03 C3-p=-0.03 H6-p=0.02 H13-p=0.02 H7-p=0.02 H14-p=0.02 H8-s=0.02 H15-s=0.02 H12-s
 =0.01 H5-s=0.01 H8-p=0.01 H15-p=0.01 H5-p=0.01 H12-p=0.01
 Alpha vir 85 OE=1.733 is C10-d=0.21 C3-d=0.21 Zn1-d=0.15 H14-s=0.05 H7-s=0.05 H15-p=0.05 H8-p=0.05 H14-p=0.04 H7-p=0.04 C10-p=-0.03 C3-p=-0.03 H15-s=0.03 H8-s=0.03 H5-p=0.02 H12-p=0.02 C9-d=0.02 C2-d=
 0.02 H11-p=0.01 H4-p=0.01 Zn1-p=0.01
 Alpha vir 86 OE=1.735 is C3-d=0.21 C10-d=0.21 Zn1-d=0.20 H15-p=0.06 H8-p=0.06 H14-s=0.05 H7-s=0.05 C10-p=-0.03 C3-p=-0.03 H13-s=0.03 H6-s=0.03 H5-p=0.02 H12-p=0.02 C2-d=0.02 C9-d=0.02 H14-p=0.01 H7-p=
 0.01 H6-p=0.01 H13-p=0.01
 Alpha vir 87 OE=1.744 is H14-p=0.19 H7-p=0.19 H13-p=0.16 H6-p=0.16 H8-p=0.14 H15-p=0.14
 Alpha vir 88 OE=1.744 is H6-p=0.19 H13-p=0.19 H7-p=0.14 H14-p=0.14 H8-p=0.13 H15-p=0.13 C10-d=0.02 C3-d=0.02
 Alpha vir 89 OE=1.748 is C10-d=0.25 C3-d=0.25 H15-s=0.07 H8-s=0.07 Zn1-d=0.05 H6-p=0.04 H13-p=0.04 C10-p=-0.04 C3-p=-0.04 H4-p=0.02 H11-p=0.02 C9-d=0.02 C2-d=0.02 H15-p=0.02 H8-p=0.02 H5-p=0.02 H12-p=
 0.02 H7-p=0.02 H14-p=0.02 H13-s=0.02 H6-s=0.02 H14-s=0.01 H7-s=0.01
 Alpha vir 90 OE=1.761 is Zn1-d=0.29 H4-p=0.13 H11-p=0.13 H5-p=0.10 H12-p=0.10 C3-d=0.04 C10-d=0.04 C2-d=0.03 C9-d=0.03 H15-p=0.02 H8-p=0.02 H7-s=0.01 H14-s=0.01
 Alpha vir 91 OE=1.778 is Zn1-d=0.22 C2-d=0.16 C9-d=0.16 C10-d=0.06 C3-d=0.06 H4-p=0.05 H11-p=0.05 H12-p=0.04 H5-p=0.04 H11-s=0.03 H4-s=0.03 H5-s=0.02 H12-s=0.02 H8-p=0.02 H15-p=0.02 C9-p=-0.02 C2-p=-0
 .02 H13-s=0.01 H6-s=0.01
 Alpha vir 92 OE=1.780 is C3-d=0.16 C10-d=0.16 Zn1-d=0.13 C9-d=0.12 C2-d=0.12 H8-p=0.03 H15-p=0.03 H6-p=0.03 H13-p=0.03 H7-p=0.03 H14-p=0.03 H14-s=0.02 H7-s=0.02 C3-s=-0.01 C10-s=-0.01 H11-p=0.01 H4-p=
 0.01
 Alpha vir 93 OE=1.793 is C3-d=0.16 C10-d=0.16 C2-d=0.12 C9-d=0.12 H6-p=0.07 H13-p=0.07 H7-p=0.03 H14-p=0.03 H11-p=0.02 H4-p=0.02 H5-p=0.02 H12-p=0.02 H8-p=0.02 H15-p=0.02 H15-s=0.02 H8-s=0.02 H4-s=0.0
 2 H11-s=0.02 Zn1-d=0.01 H7-s=0.01 H14-s=0.01
 Alpha vir 94 OE=1.820 is Zn1-d=0.37 C9-d=0.09 C2-d=0.09 C10-d=0.08 C3-d=0.08 H12-p=0.06 H5-p=0.06 Zn1-p=0.03 H6-s=0.02 H13-s=0.02 H5-s=0.02 H12-s=0.02 H11-p=0.01 H4-p=0.01 H6-p=0.01 H13-p=0.01
 Alpha vir 95 OE=1.828 is Zn1-d=0.53 C9-d=0.11 C2-d=0.11 C10-d=0.03 C3-d=0.03 H5-s=0.03 H12-s=0.03 H13-p=0.02 H6-p=0.02 H7-p=0.02 H14-p=0.02 C9-p=-0.01 C2-p=-0.01 H4-p=0.01 H11-p=0.01
 Alpha vir 96 OE=1.850 is Zn1-d=0.21 C9-d=0.14 C2-d=0.14 Zn1-p=0.09 H11-p=0.06 H4-p=0.06 C10-d=0.04 C3-d=0.04 H5-p=0.03 H12-p=0.03 H4-s=0.03 H11-s=0.03 H15-p=0.02 H8-p=0.02 H7-p=0.01 H14-p=0.01 H6-p=0.
 01 H13-p=0.01
 Alpha vir 97 OE=1.917 is Zn1-p=0.33 H15-p=0.07 H8-p=0.07 H14-p=0.07 H7-p=0.07 C3-d=0.05 C10-d=0.05 H6-p=0.05 H13-p=0.05 H11-p=0.02 H4-p=0.02 Zn1-d=0.02 H12-p=0.01 H5-p=0.01 H13-s=0.01 H6-s=0.01 C2-d=0
 .01 C9-d=0.01
 Alpha vir 98 OE=1.985 is H12-p=0.10 H5-p=0.10 H14-p=0.10 H7-p=0.10 H8-p=0.09 H15-p=0.09 H11-p=0.09 H4-p=0.09 Zn1-d=0.08 H6-p=0.05 H13-p=0.05 C2-d=0.01 C9-d=0.01
 Alpha vir 99 OE=1.986 is Zn1-p=0.23 H15-p=0.09 H8-p=0.09 H11-p=0.08 H4-p=0.08 Zn1-d=0.07 H5-p=0.05 H12-p=0.05 H6-p=0.05 H13-p=0.05 H14-p=0.03 H7-p=0.03 C2-d=0.01 C9-d=0.01 C2-p=0.01 C9-p=0.01
 Alpha vir 100 OE=1.992 is Zn1-d=0.22 H13-p=0.11 H6-p=0.11 H7-p=0.09 H14-p=0.09 H12-p=0.06 H5-p=0.06 H8-p=0.06 H15-p=0.06 H11-p=0.03 H4-p=0.03 C9-d=0.01 C2-d=0.01 Zn1-p=0.01
 Alpha vir 101 OE=2.024 is Zn1-d=0.20 H7-p=0.08 H14-p=0.08 H8-p=0.06 H15-p=0.06 H5-p=0.06 H12-p=0.06 H11-p=0.05 H4-p=0.05 C2-d=0.04 C9-d=0.04 Zn1-p=0.04 C3-d=0.02 C10-d=0.02 H13-p=0.02 H6-p=0.02 C10-s=
 0.01 C3-s=0.01 C9-s=0.01 C2-s=0.01
 Alpha vir 102 OE=2.039 is Zn1-p=0.33 H12-p=0.07 H5-p=0.07 H4-p=0.07 H11-p=0.07 H8-p=0.06 H15-p=0.06 H7-p=0.05 H14-p=0.05 C9-d=0.03 C2-d=0.03 Zn1-d=0.02 C3-d=0.02 C10-d=0.02 C9-s=0.02 C2-s=0.02
 Alpha vir 103 OE=2.055 is Zn1-p=0.24 H6-p=0.07 H13-p=0.07 H11-p=0.06 H4-p=0.06 H14-p=0.05 H7-p=0.05 H12-p=0.05 H5-p=0.05 C3-d=0.05 C10-d=0.05 Zn1-d=0.03 H15-p=0.03 H8-p=0.03 C2-d=0.02 C9-d=0.02 C9-p=0
 .01 C2-p=0.01 C3-p=0.01 C10-p=0.01
 Alpha vir 104 OE=2.103 is H15-p=0.09 H8-p=0.09 H13-p=0.08 H6-p=0.08 C9-d=0.07 C2-d=0.07 C10-d=0.07 C3-d=0.07 Zn1-d=0.06 H4-p=0.05 H11-p=0.05 C3-p=0.02 C10-p=0.02 H7-p=0.02 H14-p=0.02 H13-s=0.02 H6-s=0
 .02 Zn1-p=0.02 C2-p=0.02 C9-p=0.02
 Alpha vir 105 OE=2.120 is Zn1-d=0.20 H12-p=0.07 H5-p=0.07 C3-d=0.06 C10-d=0.06 H7-p=0.06 H14-p=0.06 H13-p=0.06 H6-p=0.06 C9-d=0.06 C2-d=0.06 C10-p=0.02 C3-p=0.02 C2-p=0.02 C9-p=0.02 H15-s=0.01 H8-s=0.
 01 H11-s=0.01 H4-s=0.01 Zn1-p=0.01
 Alpha vir 106 OE=2.144 is Zn1-d=0.09 H11-p=0.09 H4-p=0.09 H5-p=0.08 H12-p=0.08 C10-d=0.07 C3-d=0.07 H8-p=0.05 H15-p=0.05 C2-d=0.05 C9-d=0.05 H7-p=0.04 H14-p=0.04 C10-p=0.02 C3-p=0.02 H13-p=0.02 H6-p=0
 .02 H6-s=0.01 H13-s=0.01 C2-p=0.01 C9-p=0.01
 Alpha vir 107 OE=2.242 is Zn1-p=0.18 H12-p=0.10 H5-p=0.10 C2-d=0.09 C9-d=0.09 H11-p=0.07 H4-p=0.07 C3-d=0.04 C10-d=0.04 H4-s=0.03 H11-s=0.03 H5-s=0.02 H12-s=0.02 H14-s=0.02 H7-s=0.02 H6-s=0.02 H13-s=0
 .02 H15-s=0.01 H8-s=0.01
 Alpha vir 108 OE=2.272 is C2-d=0.13 C9-d=0.13 H11-p=0.10 H4-p=0.10 Zn1-d=0.10 C10-d=0.05 C3-d=0.05 H8-s=0.04 H15-s=0.04 H13-p=0.04 H6-p=0.04 H4-s=0.03 H11-s=0.03 H8-p=0.02 H15-p=0.02 H13-s=0.02 H6-s=0
 .02 H5-s=0.02 H12-s=0.02 C3-p=0.02 C10-p=0.02
 Alpha vir 109 OE=2.295 is Zn1-d=0.12 C2-d=0.12 C9-d=0.12 C10-d=0.07 C3-d=0.07 H5-p=0.06 H12-p=0.06 H7-s=0.04 H14-s=0.04 H12-s=0.04 H5-s=0.04 H13-p=0.03 H6-p=0.03 H7-p=0.03 H14-p=0.03 H13-s=0.02 H6-s=0
 .02 C3-p=0.02 C10-p=0.02 H4-s=0.02 H11-s=0.02
 Alpha vir 110 OE=2.314 is Zn1-p=0.12 C2-d=0.08 C9-d=0.08 C3-d=0.07 C10-d=0.07 H13-p=0.07 H6-p=0.07 H8-p=0.05 H15-p=0.05 H12-p=0.04 H5-p=0.04 H7-p=0.03 H14-p=0.03 H11-s=0.02 H4-s=0.02 H12-s=0.02 H5-s=0
 .02 C10-p=0.01 C3-p=0.01 H15-s=0.01 H8-s=0.01 H11-p=0.01 H4-p=0.01
 Alpha vir 111 OE=2.366 is Zn1-d=0.13 C2-d=0.11 C9-d=0.11 C10-d=0.08 C3-d=0.08 H6-p=0.05 H13-p=0.05 H11-p=0.05 H4-p=0.05 H14-p=0.03 H7-p=0.03 C3-p=0.02 C10-p=0.02 H7-s=0.02 H14-s=0.02 H5-s=0.02 H12-s=0
 .02 H8-s=0.01 H15-s=0.01 H11-s=0.01 H4-s=0.01 C9-p=0.01 C2-p=0.01 H12-p=0.01 H5-p=0.01
 Alpha vir 112 OE=2.378 is Zn1-p=0.16 C3-d=0.11 C10-d=0.11 C2-d=0.06 C9-d=0.06 H7-p=0.05 H14-p=0.05 H15-p=0.04 H8-p=0.04 C9-p=0.04 C2-p=0.04 H15-s=0.04 H8-s=0.04 H14-s=0.03 H7-s=0.03 H12-p=0.02 H5-p=0.
 02 H11-p=0.02 H4-p=0.02 C3-p=0.01 C10-p=0.01
 Alpha vir 113 OE=2.386 is Zn1-d=0.11 C3-d=0.11 C10-d=0.11 H15-p=0.05 H8-p=0.05 H14-p=0.05 H7-p=0.05 H15-s=0.04 H8-s=0.04 H7-s=0.04 H14-s=0.04 C2-d=0.03 C9-d=0.03 C2-p=0.03 C9-p=0.03 H12-p=0.03 H5-p=0.
 03 H13-p=0.02 H6-p=0.02 H4-p=0.02 H11-p=0.02 C3-p=0.01 C10-p=0.01
 Alpha vir 114 OE=2.398 is Zn1-d=0.11 C10-d=0.08 C3-d=0.08 H6-p=0.07 H13-p=0.07 H15-p=0.06 H8-p=0.06 C9-d=0.05 C2-d=0.05 H5-p=0.05 H12-p=0.05 H7-p=0.05 H14-p=0.05 H4-p=0.04 H11-p=0.04 C2-p=0.01 C9-p=0.
 01 C10-p=0.01 C3-p=0.01 H13-s=0.01 H6-s=0.01
 Alpha vir 115 OE=2.456 is C2-d=0.14 C9-d=0.14 H11-p=0.07 H4-p=0.07 H5-p=0.06 H12-p=0.06 H13-s=0.06 H6-s=0.06 Zn1-p=0.05 C3-d=0.03 C10-d=0.03 H8-p=0.02 H15-p=0.02 H6-p=0.02 H13-p=0.02 H14-p=0.02 H7-p=0
 .02 C9-p=0.02 C2-p=0.02 C3-p=0.01 C10-p=0.01 H12-s=0.01 H5-s=0.01
 Alpha vir 116 OE=2.515 is C2-d=0.17 C9-d=0.17 Zn1-d=0.14 H5-p=0.06 H12-p=0.06 H6-s=0.06 H13-s=0.06 H4-p=0.06 H11-p=0.06 C9-p=0.03 C2-p=0.03 H11-s=0.02 H4-s=0.02
 Alpha vir 117 OE=2.582 is C3-d=0.14 C10-d=0.14 C2-p=0.06 C9-p=0.06 H14-p=0.05 H7-p=0.05 C9-d=0.05 C2-d=0.05 H12-s=0.05 H5-s=0.05 H15-p=0.04 H8-p=0.04 H13-p=0.04 H6-p=0.04 H11-s=0.03 H4-s=0.03 H12-p=0.
 02 H5-p=0.02 Zn1-p=0.01 Zn1-d=0.01
 Alpha vir 118 OE=2.618 is C10-d=0.09 C3-d=0.09 C9-d=0.06 C2-d=0.06 H4-s=0.05 H11-s=0.05 H8-p=0.05 H15-p=0.05 H15-s=0.04 H8-s=0.04 H11-p=0.04 H4-p=0.04 H14-s=0.03 H7-s=0.03 H7-p=0.03 H14-p=0.03 H12-p=0
 .02 H5-p=0.02 C2-p=0.02 C9-p=0.02 H5-s=0.02 H12-s=0.02 Zn1-p=0.01 C10-p=0.01 C3-p=0.01 H13-s=0.01 H6-s=0.01
 Alpha vir 119 OE=2.627 is C10-d=0.11 C3-d=0.11 C9-d=0.08 C2-d=0.08 H7-p=0.06 H14-p=0.06 Zn1-d=0.06 H8-p=0.04 H15-p=0.04 H5-p=0.04 H12-p=0.04 C2-p=0.04 C9-p=0.04 H13-p=0.03 H6-p=0.03 H11-p=0.03 H4-p=0.
 03 H12-s=0.02 H5-s=0.02 C10-p=0.01 C3-p=0.01
 Alpha vir 120 OE=2.633 is C10-d=0.08 C3-d=0.08 C9-d=0.06 C2-d=0.06 H15-p=0.04 H8-p=0.04 H5-s=0.04 H12-s=0.04 H4-p=0.04 H11-p=0.04 H4-s=0.04 H11-s=0.04 H14-p=0.04 H7-p=0.04 H7-s=0.03 H14-s=0.03 H12-p=0
 .03 H5-p=0.03 H15-s=0.03 H8-s=0.03 C3-p=0.02 C10-p=0.02 C9-p=0.02 C2-p=0.02 H6-s=0.02 H13-s=0.02 Zn1-d=0.01 H13-p=0.01 H6-p=0.01
 Alpha vir 121 OE=2.695 is H14-p=0.09 H7-p=0.09 H12-p=0.09 H5-p=0.09 H4-s=0.08 H11-s=0.08 H4-p=0.08 H11-p=0.08 H14-s=0.07 H7-s=0.07 H15-p=0.07 H8-p=0.07 H12-s=0.07 H5-s=0.07 H8-s=0.06 H15-s=0.06 C3-p=-
 0.04 C10-p=-0.04 C9-p=-0.03 C2-p=-0.03 C9-d=-0.02 C2-d=-0.02 C3-d=-0.02 C10-d=-0.02 Zn1-p=0.02
 Alpha vir 122 OE=2.703 is H8-s=0.13 H15-s=0.13 H15-p=0.10 H8-p=0.10 H7-p=0.07 H14-p=0.07 H14-s=0.06 H7-s=0.06 H12-s=0.06 H5-s=0.06 H4-s=0.06 H11-s=0.06 H4-p=0.06 H11-p=0.06 C10-p=-0.04 C3-p=-0.04 H12-
 p=0.04 H5-p=0.04 C10-d=-0.02 C3-d=-0.02 C9-p=-0.02 C2-p=-0.02 H13-p=0.02 H6-p=0.02 Zn1-d=0.01 C9-d=-0.01 C2-d=-0.01
 Alpha vir 123 OE=2.724 is H13-p=0.17 H6-p=0.17 H7-s=0.10 H14-s=0.10 C3-d=0.06 C10-d=0.06 Zn1-p=0.05 C2-d=0.04 C9-d=0.04 H15-s=0.03 H8-s=0.03 C3-p=0.02 C10-p=0.02 H5-p=0.02 H12-p=0.02 H5-s=0.01 H12-s=0
 .01
 Alpha vir 124 OE=2.754 is C3-d=0.12 C10-d=0.12 H13-s=0.08 H6-s=0.08 C2-d=0.06 C9-d=0.06 C3-p=0.06 C10-p=0.06 H14-p=0.04 H7-p=0.04 Zn1-d=0.03 H8-p=0.03 H15-p=0.03 C9-p=0.02 C2-p=0.02 H13-p=0.02 H6-p=0.
 02 H8-s=0.02 H15-s=0.02 H7-s=0.01 H14-s=0.01
 Alpha vir 125 OE=2.758 is H6-s=0.21 H13-s=0.21 H14-p=0.09 H7-p=0.09 H6-p=0.09 H13-p=0.09 H15-p=0.07 H8-p=0.07 C10-p=-0.03 C3-p=-0.03 C2-d=0.02 C9-d=0.02 C3-d=0.01 C10-d=0.01
 Alpha vir 126 OE=2.792 is H6-p=0.18 H13-p=0.18 H15-s=0.12 H8-s=0.12 H6-s=0.11 H13-s=0.11 H8-p=0.06 H15-p=0.06 C3-p=-0.05 C10-p=-0.05 H14-p=0.03 H7-p=0.03 H5-p=0.02 H12-p=0.02 C10-d=-0.02 C3-d=-0.02 H1
 4-s=0.02 H7-s=0.02 C2-d=0.01 C9-d=0.01
 Alpha vir 127 OE=2.808 is H14-s=0.13 H7-s=0.13 H4-p=0.08 H11-p=0.08 H4-s=0.05 H11-s=0.05 H14-p=0.05 H7-p=0.05 H6-p=0.04 H13-p=0.04 H5-p=0.04 H12-p=0.04 H5-s=0.04 H12-s=0.04 H8-p=0.04 H15-p=0.04 H15-s=
 0.03 H8-s=0.03 C2-d=-0.02 C9-d=-0.02 H13-s=0.01 H6-s=0.01
 Alpha vir 128 OE=2.839 is H12-s=0.14 H5-s=0.14 H4-p=0.08 H11-p=0.08 H5-p=0.06 H12-p=0.06 H7-s=0.05 H14-s=0.05 H15-s=0.04 H8-s=0.04 H14-p=0.04 H7-p=0.04 H8-p=0.04 H15-p=0.04 H11-s=0.03 H4-s=0.03 Zn1-d=
 0.03 C10-d=0.02 C3-d=0.02 H6-p=0.02 H13-p=0.02 C2-d=-0.01 C9-d=-0.01 Zn1-p=0.01
 Alpha vir 129 OE=2.856 is H4-s=0.11 H11-s=0.11 C9-d=0.08 C2-d=0.08 Zn1-p=0.08 C9-p=0.07 C2-p=0.07 C3-d=0.06 C10-d=0.06 H12-p=0.04 H5-p=0.04 H7-p=0.02 H14-p=0.02 H8-s=0.02 H15-s=0.02 H5-s=0.01 H12-s=0.
 01 H8-p=0.01 H15-p=0.01 C10-p=0.01 C3-p=0.01
 Alpha vir 130 OE=2.906 is C2-p=0.10 C9-p=0.10 C9-d=0.09 C2-d=0.09 Zn1-d=0.06 C10-d=0.05 C3-d=0.05 H13-p=0.05 H6-p=0.05 H4-s=0.05 H11-s=0.05 H12-s=0.05 H5-s=0.05 C10-p=0.02 C3-p=0.02 H15-p=0.02 H8-p=0.
 02 Zn1-s=0.02 H7-p=0.01 H14-p=0.01 H4-p=0.01 H11-p=0.01
 Alpha vir 131 OE=2.933 is C10-p=0.16 C3-p=0.16 C10-d=0.10 C3-d=0.10 H8-p=0.06 H15-p=0.06 H6-s=0.05 H13-s=0.05 H6-p=0.04 H13-p=0.04 C9-d=0.03 C2-d=0.03 H14-p=0.02 H7-p=0.02 H8-s=0.01 H15-s=0.01 C9-p=0.
 01 C2-p=0.01
 Alpha vir 132 OE=2.937 is C10-p=0.12 C3-p=0.12 H14-p=0.09 H7-p=0.09 C10-d=0.07 C3-d=0.07 H8-p=0.07 H15-p=0.07 C2-p=0.04 C9-p=0.04 H12-p=0.03 H5-p=0.03 H11-p=0.03 H4-p=0.03 H7-s=0.02 H14-s=0.02 C2-d=0.
 02 C9-d=0.02 H8-s=0.01 H15-s=0.01
 Alpha vir 133 OE=2.947 is C10-p=0.13 C3-p=0.13 H7-p=0.08 H14-p=0.08 C10-d=0.07 C3-d=0.07 H15-p=0.05 H8-p=0.05 C2-p=0.05 C9-p=0.05 C2-d=0.03 C9-d=0.03 H4-p=0.03 H11-p=0.03 H5-p=0.02 H12-p=0.02 H7-s=0.0
 2 H14-s=0.02 H15-s=0.01 H8-s=0.01
 Alpha vir 134 OE=2.967 is C3-p=0.12 C10-p=0.12 C3-d=0.11 C10-d=0.11 C2-d=0.06 C9-d=0.06 H13-s=0.05 H6-s=0.05 Zn1-d=0.04 H13-p=0.04 H6-p=0.04 H8-p=0.03 H15-p=0.03 H14-p=0.02 H7-p=0.02
 Alpha vir 135 OE=2.986 is C9-d=0.12 C2-d=0.12 C2-p=0.09 C9-p=0.09 C3-d=0.08 C10-d=0.08 H4-p=0.05 H11-p=0.05 H5-p=0.05 H12-p=0.05 H5-s=0.03 H12-s=0.03 H11-s=0.02 H4-s=0.02 H14-p=0.01 H7-p=0.01 H15-p=0.
 01 H8-p=0.01 C10-p=0.01 C3-p=0.01 H14-s=0.01 H7-s=0.01
 Alpha vir 136 OE=2.987 is H12-p=0.20 H5-p=0.20 H4-p=0.11 H11-p=0.11 H4-s=0.08 H11-s=0.08 H12-s=0.05 H5-s=0.05 H8-p=0.03 H15-p=0.03 C9-s=-0.02 C2-s=-0.02 H14-p=0.02 H7-p=0.02 H7-s=0.02 H14-s=0.02 C2-p=
 -0.02 C9-p=-0.02 H13-p=0.01 H6-p=0.01 C3-s=-0.01 C10-s=-0.01
 Alpha vir 137 OE=2.992 is H11-p=0.12 H4-p=0.12 C2-d=0.11 C9-d=0.11 C10-d=0.07 C3-d=0.07 C9-p=0.07 C2-p=0.07 H5-s=0.03 H12-s=0.03 H14-p=0.02 H7-p=0.02 H12-p=0.02 H5-p=0.02 H8-s=0.02 H15-s=0.02 H4-s=0.0
 1 H11-s=0.01 C3-p=0.01 C10-p=0.01
 Alpha vir 138 OE=3.018 is H5-p=0.15 H12-p=0.15 H11-p=0.13 H4-p=0.13 H12-s=0.08 H5-s=0.08 H11-s=0.07 H4-s=0.07 H15-p=0.04 H8-p=0.04 H7-p=0.04 H14-p=0.04 C2-s=-0.03 C9-s=-0.03 H6-p=0.03 H13-p=0.03 C2-p=
 -0.02 C9-p=-0.02 H7-s=0.02 H14-s=0.02 H15-s=0.02 H8-s=0.02 C3-s=-0.02 C10-s=-0.02 C2-d=-0.01 C9-d=-0.01
 Alpha vir 139 OE=3.116 is H13-p=0.10 H6-p=0.10 H7-s=0.07 H14-s=0.07 H6-s=0.06 H13-s=0.06 H15-s=0.06 H8-s=0.06 H8-p=0.06 H15-p=0.06 H14-p=0.06 H7-p=0.06 C9-p=0.04 C2-p=0.04 C3-s=-0.04 C10-s=-0.04 C10-p
 =0.02 C3-p=0.02 H12-s=0.02 H5-s=0.02 H4-s=0.02 H11-s=0.02 H11-p=0.02 H4-p=0.02 H5-p=0.01 H12-p=0.01
 Alpha vir 140 OE=3.121 is H13-p=0.09 H6-p=0.09 H6-s=0.07 H13-s=0.07 H8-s=0.06 H15-s=0.06 H7-p=0.05 H14-p=0.05 H15-p=0.05 H8-p=0.05 H7-s=0.05 H14-s=0.05 C10-s=-0.03 C3-s=-0.03 H11-s=0.03 H4-s=0.03 C9-p
 =0.03 C2-p=0.03 H12-s=0.03 H5-s=0.03 H5-p=0.03 H12-p=0.03 H11-p=0.02 H4-p=0.02 C10-p=0.02 C3-p=0.02
 Alpha vir 141 OE=3.372 is C2-p=0.34 C9-p=0.34 Zn1-p=0.07 C10-p=0.04 C3-p=0.04 Zn1-f=0.03 H15-p=0.02 H8-p=0.02 H7-p=0.02 H14-p=0.02 C3-d=0.01 C10-d=0.01
 Alpha vir 142 OE=3.490 is C2-p=0.21 C9-p=0.21 C10-p=0.18 C3-p=0.18 Zn1-s=0.03 H13-p=0.02 H6-p=0.02 Zn1-d=0.02 H7-p=0.02 H14-p=0.02 H8-p=0.02 H15-p=0.02 H11-p=0.01 H4-p=0.01 H5-p=0.01 H12-p=0.01
 Alpha vir 143 OE=3.566 is C2-p=0.22 C9-p=0.22 C3-p=0.16 C10-p=0.16 Zn1-f=0.03 H6-p=0.02 H13-p=0.02 Zn1-p=0.02 H5-p=0.02 H12-p=0.02 C9-d=0.02 C2-d=0.02 H4-p=0.02 H11-p=0.02 C10-d=0.01 C3-d=0.01 H8-p=0.
 01 H15-p=0.01 H14-p=0.01 H7-p=0.01 C2-s=0.01 C9-s=0.01
 Alpha vir 144 OE=3.886 is C2-p=0.34 C9-p=0.34 Zn1-d=0.10 Zn1-s=0.07 C9-d=0.03 C2-d=0.03 C3-p=0.02 C10-p=0.02
 Alpha vir 145 OE=4.144 is C2-p=0.36 C9-p=0.36 C2-d=0.08 C9-d=0.08 C3-p=0.03 C10-p=0.03 H11-s=0.02 H4-s=0.02 H5-s=0.01 H12-s=0.01
 Alpha vir 146 OE=4.163 is C9-p=0.36 C2-p=0.36 C9-d=0.07 C2-d=0.07 C10-p=0.04 C3-p=0.04 H12-s=0.01 H5-s=0.01 H11-s=0.01 H4-s=0.01
 Alpha vir 147 OE=4.192 is C10-p=0.38 C3-p=0.38 C10-d=0.08 C3-d=0.08 H13-s=0.01 H6-s=0.01
 Alpha vir 148 OE=4.193 is C10-p=0.38 C3-p=0.38 C10-d=0.08 C3-d=0.08 H6-s=0.01 H13-s=0.01
 Alpha vir 149 OE=4.195 is C3-p=0.36 C10-p=0.36 C3-d=0.09 C10-d=0.09 C9-d=0.01 C2-d=0.01 H14-s=0.01 H7-s=0.01 H8-s=0.01 H15-s=0.01
 Alpha vir 150 OE=4.196 is C3-p=0.35 C10-p=0.35 C3-d=0.09 C10-d=0.09 C9-d=0.02 C2-d=0.02 H8-s=0.01 H15-s=0.01 H14-s=0.01 H7-s=0.01
 Alpha vir 151 OE=4.362 is Zn1-s=0.87 Zn1-d=0.06 C2-p=0.02 C9-p=0.02
 Alpha vir 152 OE=4.564 is C10-p=0.21 C3-p=0.21 C2-p=0.19 C9-p=0.19 Zn1-f=0.05 C2-d=0.04 C9-d=0.04 C10-d=0.03 C3-d=0.03
 Alpha vir 153 OE=4.601 is C3-p=0.22 C10-p=0.22 C2-p=0.21 C9-p=0.21 C2-d=0.03 C9-d=0.03 C3-d=0.03 C10-d=0.03
 Alpha vir 154 OE=4.759 is Zn1-f=1.00
 Alpha vir 155 OE=4.759 is Zn1-f=1.00
 Alpha vir 156 OE=4.773 is Zn1-f=0.99
 Alpha vir 157 OE=4.775 is Zn1-f=0.99
 Alpha vir 158 OE=4.814 is Zn1-f=0.98
 Alpha vir 159 OE=4.816 is Zn1-f=0.96 C2-p=0.01 C9-p=0.01
 Alpha vir 160 OE=5.010 is Zn1-f=0.91 C2-p=0.03 C9-p=0.03
 Alpha vir 161 OE=8.407 is Zn1-d=1.00
 Alpha vir 162 OE=8.418 is Zn1-d=1.00
 Alpha vir 163 OE=8.558 is Zn1-d=1.00
 Alpha vir 164 OE=8.573 is Zn1-d=1.00
 Alpha vir 165 OE=8.988 is Zn1-d=0.99
 Alpha vir 166 OE=10.753 is Zn1-p=1.00
 Alpha vir 167 OE=10.769 is Zn1-p=1.00
 Alpha vir 168 OE=11.162 is Zn1-p=1.00
 Alpha vir 169 OE=25.006 is C9-s=0.45 C2-s=0.45 C10-s=0.05 C3-s=0.05
 Alpha vir 170 OE=25.012 is C2-s=0.46 C9-s=0.46 C10-s=0.04 C3-s=0.04
 Alpha vir 171 OE=25.083 is C3-s=0.46 C10-s=0.46 C2-s=0.04 C9-s=0.04
 Alpha vir 172 OE=25.084 is C3-s=0.45 C10-s=0.45 C2-s=0.05 C9-s=0.05
 Alpha vir 173 OE=35.446 is Zn1-s=1.00
 Alpha vir 174 OE=45.855 is Zn1-p=1.00
 Alpha vir 175 OE=45.865 is Zn1-p=1.00
 Alpha vir 176 OE=46.145 is Zn1-p=1.00
 Alpha vir 177 OE=190.533 is Zn1-s=1.00
 Alpha vir 178 OE=986.118 is Zn1-s=1.00
 
 Orbital energies and kinetic energies (alpha):
                                 1                 2
   1         O              -353.304307        435.482650
   2         O               -44.345190         83.510179
   3         O               -38.937076         82.131152
   4         O               -38.936923         82.131312
   5         O               -38.933467         82.145008
   6         O               -11.209363         16.024722
   7         O               -11.209363         16.024724
   8         O               -11.184707         16.025126
   9         O               -11.184701         16.025208
  10         O                -5.632752         18.042797
  11         O                -3.840156         16.255062
  12         O                -3.839840         16.256810
  13         O                -3.836763         16.336947
  14         O                -0.994933          1.381686
  15         O                -0.989989          1.267718
  16         O                -0.832700          3.584234
  17         O                -0.808106          1.319715
  18         O                -0.789102         11.262206
  19         O                -0.788740         11.255271
  20         O                -0.784135         10.873838
  21         O                -0.783340         10.931229
  22         O                -0.750978          8.035056
  23         O                -0.580659          0.881309
  24         O                -0.576630          1.040830
  25         O                -0.558105          1.149805
  26         O                -0.555809          0.945881
  27         O                -0.489841          1.163034
  28         O                -0.487170          1.303049
  29         O                -0.471254          1.016664
  30         O                -0.467850          1.111970
  31         O                -0.401157          1.596418
  32         O                -0.336617          1.403446
  33         V                 0.110538          0.818495
  34         V                 0.164160          0.493081
  35         V                 0.193134          0.570518
  36         V                 0.195778          0.488023
  37         V                 0.207505          0.463923
  38         V                 0.219103          0.484121
  39         V                 0.224769          0.474965
  40         V                 0.246052          0.508168
  41         V                 0.251246          0.543493
  42         V                 0.254124          0.547887
  43         V                 0.281374          0.723524
  44         V                 0.355975          1.035247
  45         V                 0.365178          2.001221
  46         V                 0.378076          0.990980
  47         V                 0.407224          1.140283
  48         V                 0.441273          0.957800
  49         V                 0.467403          0.898893
  50         V                 0.470660          0.842220
  51         V                 0.484235          0.814232
  52         V                 0.485128          0.811554
  53         V                 0.497580          1.050012
  54         V                 0.501476          1.050851
  55         V                 0.635175          1.193470
  56         V                 0.647669          1.756400
  57         V                 0.758143          1.941797
  58         V                 0.770978          2.155304
  59         V                 0.782628          1.981467
  60         V                 0.811171          1.771715
  61         V                 0.816772          1.944471
  62         V                 0.817674          1.890832
  63         V                 0.818235          1.843394
  64         V                 0.818356          1.974681
  65         V                 0.824861          1.865106
  66         V                 0.847326          2.099076
  67         V                 0.849745          2.023320
  68         V                 0.879585          2.181061
  69         V                 0.911621          2.543658
  70         V                 0.989933          2.022868
  71         V                 1.023814          2.284262
  72         V                 1.138869          2.185208
  73         V                 1.212560          2.005922
  74         V                 1.214954          1.939973
  75         V                 1.217273          1.899969
  76         V                 1.218824          1.833129
  77         V                 1.451568          2.722587
  78         V                 1.505542          2.237289
  79         V                 1.524481          2.032303
  80         V                 1.528566          2.608043
  81         V                 1.564539          2.992175
  82         V                 1.616894          3.503394
  83         V                 1.669498          3.531777
  84         V                 1.691876          3.285715
  85         V                 1.733425          3.026569
  86         V                 1.735344          3.232959
  87         V                 1.743749          2.144897
  88         V                 1.743793          2.141523
  89         V                 1.747555          2.589157
  90         V                 1.760570          3.452468
  91         V                 1.778120          3.319322
  92         V                 1.779732          2.988336
  93         V                 1.792617          2.537570
  94         V                 1.820005          4.123853
  95         V                 1.827631          4.540847
  96         V                 1.850054          3.805279
  97         V                 1.916658          4.554277
  98         V                 1.985127          2.672850
  99         V                 1.985756          4.067861
 100         V                 1.991926          3.365944
 101         V                 2.024427          3.920685
 102         V                 2.038966          4.736472
 103         V                 2.055014          4.160794
 104         V                 2.103478          3.229150
 105         V                 2.120261          3.682612
 106         V                 2.143877          3.282528
 107         V                 2.241583          4.043276
 108         V                 2.271831          3.589870
 109         V                 2.294595          3.736159
 110         V                 2.313991          3.754224
 111         V                 2.365810          3.746446
 112         V                 2.378477          4.272630
 113         V                 2.386338          3.840524
 114         V                 2.397922          3.503178
 115         V                 2.456198          3.682557
 116         V                 2.514771          4.050535
 117         V                 2.581804          3.819469
 118         V                 2.617896          3.881188
 119         V                 2.626745          3.891160
 120         V                 2.632599          3.885419
 121         V                 2.694630          3.522653
 122         V                 2.702989          3.564213
 123         V                 2.723710          4.232920
 124         V                 2.754482          4.397374
 125         V                 2.758428          3.753922
 126         V                 2.791911          3.647360
 127         V                 2.807589          3.740964
 128         V                 2.839361          3.940620
 129         V                 2.856286          4.805023
 130         V                 2.906336          4.909262
 131         V                 2.933186          5.050636
 132         V                 2.937354          5.089079
 133         V                 2.946603          5.144298
 134         V                 2.967057          4.919115
 135         V                 2.985722          4.588258
 136         V                 2.987042          4.072879
 137         V                 2.992353          4.480571
 138         V                 3.017921          4.044680
 139         V                 3.115976          4.711194
 140         V                 3.121227          4.724748
 141         V                 3.372423          6.781487
 142         V                 3.489575          6.946760
 143         V                 3.566076          6.545457
 144         V                 3.886184          8.073261
 145         V                 4.143595          6.461356
 146         V                 4.162883          6.531443
 147         V                 4.191846          6.453532
 148         V                 4.192794          6.542167
 149         V                 4.194524          6.366307
 150         V                 4.195727          6.349938
 151         V                 4.361995         17.592779
 152         V                 4.564335          7.195857
 153         V                 4.601291          7.361327
 154         V                 4.758635          7.290169
 155         V                 4.758638          7.290170
 156         V                 4.772999          7.293805
 157         V                 4.775463          7.295779
 158         V                 4.813849          7.333428
 159         V                 4.815598          7.350030
 160         V                 5.009687          7.650033
 161         V                 8.406777         26.526556
 162         V                 8.417596         26.521569
 163         V                 8.558068         26.472161
 164         V                 8.573278         26.470339
 165         V                 8.988343         26.371355
 166         V                10.753499         32.384064
 167         V                10.768655         32.386024
 168         V                11.161637         32.504048
 169         V                25.006151         60.360816
 170         V                25.011894         60.364161
 171         V                25.083072         60.443953
 172         V                25.084233         60.445822
 173         V                35.445665        115.748362
 174         V                45.854899        136.226220
 175         V                45.865043        136.230674
 176         V                46.145393        136.362096
 177         V               190.533406        439.675047
 178         V               986.118191       2015.257195
 Total kinetic energy from orbitals= 1.935830116382D+03

 Test job not archived.
 1\1\GINC-GAMBA\SP\RHF\Gen\C4H10Zn1\IRIKURA\18-May-2017\0\\# HF/GEN gfi
 nput geom=check IOP(6/81=3) scf=xqc pop(all,thresh=1)\\BEB step 2: Har
 tree-Fock B and U for ZnEt2\\0,1\Zn,0,0.,0.,0.092059\C,0,0.,1.933945,0
 .090127\C,0,1.360973,2.577345,-0.233751\H,0,-0.346594,2.294125,1.06984
 1\H,0,-0.75069,2.294418,-0.628225\H,0,1.311324,3.675407,-0.22301\H,0,2
 .134924,2.28887,0.488877\H,0,1.727459,2.287037,-1.226622\C,0,0.,-1.933
 945,0.090127\C,0,-1.360973,-2.577345,-0.233751\H,0,0.346594,-2.294125,
 1.069841\H,0,0.75069,-2.294418,-0.628225\H,0,-1.311324,-3.675407,-0.22
 301\H,0,-2.134924,-2.28887,0.488877\H,0,-1.727459,-2.287037,-1.226622\
 \Version=ES64L-G09RevD.01\State=1-A\HF=-1934.972141\RMSD=3.518e-09\Dip
 ole=0.,0.,0.0291628\Quadrupole=1.7605386,-4.6409209,2.8803823,-0.83926
 27,0.,0.\PG=C02 [C2(Zn1),X(C4H10)]\\@


 FROM WHENCE IT HAPPENS, THAT THEY WHICH TRUST TO BOOKS, DO AS THEY THAT CAST UP MANY LITTLE SUMMS INTO GREATER,
 WITHOUT CONSIDERING WETHER THOSE LITTLE SUMMES WERE RIGHTLY CAST UP OR NOT...
 AND AT LAST FINDING THE ERROUR VISIBLE, AND NOT MISTRUSTING THEIR FIRST GROUNDS,
 KNOW NOT WHICH WAY TO CLEERE THEMSELVES...
 BUT SPEND TIME IN FLUTTERING OVER THEIR BOOKES....
 AS BIRDS THAT ENTERING BY THE CHIMNEY, AND FINDING THEMSELVES INCLOSED IN A CHAMBER,
 FLUTTER AT THE FALSE LIGHT OF A GLASSE WINDOW,
 FOR WANT OF WIT TO CONSIDER WHICH WAY THEY CAME IN....
           LEVIATHAN
 Job cpu time:       0 days  0 hours  0 minutes 28.8 seconds.
 File lengths (MBytes):  RWF=     14 Int=      0 D2E=      0 Chk=      3 Scr=      1
 Normal termination of Gaussian 09 at Thu May 18 11:35:40 2017.
