 Entering Gaussian System, Link 0=g09
 Initial command:
 /usr/local/apps/g09/l1.exe "/wrk/irikura/Gau-8443.inp" -scrdir="/wrk/irikura/"
 Entering Link 1 = /usr/local/apps/g09/l1.exe PID=      8445.
  
 Copyright (c) 1988,1990,1992,1993,1995,1998,2003,2009,2013,
            Gaussian, Inc.  All Rights Reserved.
  
 This is part of the Gaussian(R) 09 program.  It is based on
 the Gaussian(R) 03 system (copyright 2003, Gaussian, Inc.),
 the Gaussian(R) 98 system (copyright 1998, Gaussian, Inc.),
 the Gaussian(R) 94 system (copyright 1995, Gaussian, Inc.),
 the Gaussian 92(TM) system (copyright 1992, Gaussian, Inc.),
 the Gaussian 90(TM) system (copyright 1990, Gaussian, Inc.),
 the Gaussian 88(TM) system (copyright 1988, Gaussian, Inc.),
 the Gaussian 86(TM) system (copyright 1986, Carnegie Mellon
 University), and the Gaussian 82(TM) system (copyright 1983,
 Carnegie Mellon University). Gaussian is a federally registered
 trademark of Gaussian, Inc.
  
 This software contains proprietary and confidential information,
 including trade secrets, belonging to Gaussian, Inc.
  
 This software is provided under written license and may be
 used, copied, transmitted, or stored only in accord with that
 written license.
  
 The following legend is applicable only to US Government
 contracts under FAR:
  
                    RESTRICTED RIGHTS LEGEND
  
 Use, reproduction and disclosure by the US Government is
 subject to restrictions as set forth in subparagraphs (a)
 and (c) of the Commercial Computer Software - Restricted
 Rights clause in FAR 52.227-19.
  
 Gaussian, Inc.
 340 Quinnipiac St., Bldg. 40, Wallingford CT 06492
  
  
 ---------------------------------------------------------------
 Warning -- This program may not be used in any manner that
 competes with the business of Gaussian, Inc. or will provide
 assistance to any competitor of Gaussian, Inc.  The licensee
 of this program is prohibited from giving any competitor of
 Gaussian, Inc. access to this program.  By using this program,
 the user acknowledges that Gaussian, Inc. is engaged in the
 business of creating and licensing software in the field of
 computational chemistry and represents and warrants to the
 licensee that it is not a competitor of Gaussian, Inc. and that
 it will not use this program in any manner prohibited above.
 ---------------------------------------------------------------
  

 Cite this work as:
 Gaussian 09, Revision D.01,
 M. J. Frisch, G. W. Trucks, H. B. Schlegel, G. E. Scuseria, 
 M. A. Robb, J. R. Cheeseman, G. Scalmani, V. Barone, B. Mennucci, 
 G. A. Petersson, H. Nakatsuji, M. Caricato, X. Li, H. P. Hratchian, 
 A. F. Izmaylov, J. Bloino, G. Zheng, J. L. Sonnenberg, M. Hada, 
 M. Ehara, K. Toyota, R. Fukuda, J. Hasegawa, M. Ishida, T. Nakajima, 
 Y. Honda, O. Kitao, H. Nakai, T. Vreven, J. A. Montgomery, Jr., 
 J. E. Peralta, F. Ogliaro, M. Bearpark, J. J. Heyd, E. Brothers, 
 K. N. Kudin, V. N. Staroverov, T. Keith, R. Kobayashi, J. Normand, 
 K. Raghavachari, A. Rendell, J. C. Burant, S. S. Iyengar, J. Tomasi, 
 M. Cossi, N. Rega, J. M. Millam, M. Klene, J. E. Knox, J. B. Cross, 
 V. Bakken, C. Adamo, J. Jaramillo, R. Gomperts, R. E. Stratmann, 
 O. Yazyev, A. J. Austin, R. Cammi, C. Pomelli, J. W. Ochterski, 
 R. L. Martin, K. Morokuma, V. G. Zakrzewski, G. A. Voth, 
 P. Salvador, J. J. Dannenberg, S. Dapprich, A. D. Daniels, 
 O. Farkas, J. B. Foresman, J. V. Ortiz, J. Cioslowski, 
 and D. J. Fox, Gaussian, Inc., Wallingford CT, 2013.
 
 ******************************************
 Gaussian 09:  ES64L-G09RevD.01 24-Apr-2013
                25-May-2017 
 ******************************************
 %chk=ZnEt2.chk
 %nprocs=6
 Will use up to    6 processors via shared memory.
 %mem=4000mw
 --------------------------------------------------
 # HF/GEN geom=check guess=check scf=xqc stable=opt
 --------------------------------------------------
 1/29=2,38=1/1;
 2/12=2,40=1/2;
 3/5=7,11=2,14=-4,16=1,25=1,30=1,116=-2/1,2,3;
 4/5=1/1;
 5/5=2,8=3,13=1,38=6/2,8;
 6/7=2,8=2,9=2,10=2,28=1/1;
 8/6=1,10=90,11=11/1;
 9/8=-3,42=1,46=1/14;
 5/5=2,8=3,17=40,38=6/8(-2);
 6/7=2,8=2,9=2,10=2,28=1/1;
 99/5=1,9=1/99;
 --------------------------------------
 HF stabilization to precede BEB step 7
 --------------------------------------
 Structure from the checkpoint file:  "ZnEt2.chk"
 Charge =  1 Multiplicity = 4
 Redundant internal coordinates found in file.
 Zn,0,0.,0.,0.092059
 C,0,0.,1.933945,0.090127
 C,0,1.360973,2.577345,-0.233751
 H,0,-0.346594,2.294125,1.069841
 H,0,-0.75069,2.294418,-0.628225
 H,0,1.311324,3.675407,-0.22301
 H,0,2.134924,2.28887,0.488877
 H,0,1.727459,2.287037,-1.226622
 C,0,0.,-1.933945,0.090127
 C,0,-1.360973,-2.577345,-0.233751
 H,0,0.346594,-2.294125,1.069841
 H,0,0.75069,-2.294418,-0.628225
 H,0,-1.311324,-3.675407,-0.22301
 H,0,-2.134924,-2.28887,0.488877
 H,0,-1.727459,-2.287037,-1.226622
 Recover connectivity data from disk.
                          Input orientation:                          
 ---------------------------------------------------------------------
 Center     Atomic      Atomic             Coordinates (Angstroms)
 Number     Number       Type             X           Y           Z
 ---------------------------------------------------------------------
      1         30           0        0.000000    0.000000    0.092059
      2          6           0        0.000000    1.933945    0.090127
      3          6           0        1.360973    2.577345   -0.233751
      4          1           0       -0.346594    2.294125    1.069841
      5          1           0       -0.750690    2.294418   -0.628225
      6          1           0        1.311324    3.675407   -0.223010
      7          1           0        2.134924    2.288870    0.488877
      8          1           0        1.727459    2.287037   -1.226622
      9          6           0        0.000000   -1.933945    0.090127
     10          6           0       -1.360973   -2.577345   -0.233751
     11          1           0        0.346594   -2.294125    1.069841
     12          1           0        0.750690   -2.294418   -0.628225
     13          1           0       -1.311324   -3.675407   -0.223010
     14          1           0       -2.134924   -2.288870    0.488877
     15          1           0       -1.727459   -2.287037   -1.226622
 ---------------------------------------------------------------------
                    Distance matrix (angstroms):
                    1          2          3          4          5
     1  Zn   0.000000
     2  C    1.933946   0.000000
     3  C    2.932764   1.539840   0.000000
     4  H    2.517776   1.099862   2.166876   0.000000
     5  H    2.519265   1.099775   2.166744   1.745486   0.000000
     6  H    3.915029   2.202343   1.099236   2.515571   2.514604
     7  H    3.155042   2.200653   1.097456   2.548623   3.094304
     8  H    3.154928   2.200595   1.097444   3.094429   2.549383
     9  C    1.933946   3.867890   4.723228   4.353911   4.354150
    10  C    2.932764   4.723228   5.829221   5.143883   4.925660
    11  H    2.517776   4.353911   5.143883   4.640318   5.014199
    12  H    2.519265   4.354150   4.925660   5.014199   4.828204
    13  H    3.915029   5.769095   6.799867   6.183646   6.009769
    14  H    3.155042   4.748586   6.035191   4.953735   4.916355
    15  H    3.154928   4.747066   5.846915   5.307313   4.722487
                    6          7          8          9         10
     6  H    0.000000
     7  H    1.762834   0.000000
     8  H    1.762945   1.763227   0.000000
     9  C    5.769095   4.748586   4.747066   0.000000
    10  C    6.799867   6.035191   5.846915   1.539840   0.000000
    11  H    6.183646   4.953735   5.307313   1.099862   2.166876
    12  H    6.009769   4.916355   4.722487   1.099775   2.166744
    13  H    7.804662   6.925028   6.766992   2.202343   1.099236
    14  H    6.925028   6.259976   6.228954   2.200653   1.097456
    15  H    6.766992   6.228954   5.732243   2.200595   1.097444
                   11         12         13         14         15
    11  H    0.000000
    12  H    1.745486   0.000000
    13  H    2.515571   2.514604   0.000000
    14  H    2.548623   3.094304   1.762834   0.000000
    15  H    3.094429   2.549383   1.762945   1.763227   0.000000
 Stoichiometry    C4H10Zn(1+,4)
 Framework group  C2[C2(Zn),X(C4H10)]
 Deg. of freedom    20
 Full point group                 C2      NOp   2
 Largest Abelian subgroup         C2      NOp   2
 Largest concise Abelian subgroup C2      NOp   2
                         Standard orientation:                         
 ---------------------------------------------------------------------
 Center     Atomic      Atomic             Coordinates (Angstroms)
 Number     Number       Type             X           Y           Z
 ---------------------------------------------------------------------
      1         30           0        0.000000    0.000000    0.092059
      2          6           0        0.000000    1.933945    0.090127
      3          6           0        1.360973    2.577345   -0.233751
      4          1           0       -0.346594    2.294125    1.069841
      5          1           0       -0.750690    2.294418   -0.628225
      6          1           0        1.311324    3.675407   -0.223010
      7          1           0        2.134924    2.288870    0.488877
      8          1           0        1.727459    2.287037   -1.226622
      9          6           0        0.000000   -1.933945    0.090127
     10          6           0       -1.360973   -2.577345   -0.233751
     11          1           0        0.346594   -2.294125    1.069841
     12          1           0        0.750690   -2.294418   -0.628225
     13          1           0       -1.311324   -3.675407   -0.223010
     14          1           0       -2.134924   -2.288870    0.488877
     15          1           0       -1.727459   -2.287037   -1.226622
 ---------------------------------------------------------------------
 Rotational constants (GHZ):     14.6723335      1.3797086      1.3187032
 General basis read from cards:  (5D, 7F)
 There are   191 symmetry adapted cartesian basis functions of A   symmetry.
 There are   183 symmetry adapted cartesian basis functions of B   symmetry.
 There are   166 symmetry adapted basis functions of A   symmetry.
 There are   162 symmetry adapted basis functions of B   symmetry.
   328 basis functions,   725 primitive gaussians,   374 cartesian basis functions
    33 alpha electrons       30 beta electrons
       nuclear repulsion energy       320.7392817687 Hartrees.
 NAtoms=   15 NActive=   15 NUniq=    8 SFac= 3.52D+00 NAtFMM=   60 NAOKFM=F Big=F
 Integral buffers will be    131072 words long.
 Raffenetti 2 integral format.
 Two-electron integral symmetry is turned on.
 One-electron integrals computed using PRISM.
 NBasis=   328 RedAO= T EigKep=  6.20D-04  NBF=   166   162
 NBsUse=   328 1.00D-06 EigRej= -1.00D+00 NBFU=   166   162
 Initial guess from the checkpoint file:  "ZnEt2.chk"
 B after Tr=     0.000000    0.000000    0.000000
         Rot=    1.000000    0.000000    0.000000    0.000000 Ang=   0.00 deg.
 Initial guess orbital symmetries:
 Alpha Orbitals:
       Occupied  (A) (A) (B) (A) (B) (A) (B) (B) (A) (A) (B) (A)
                 (B) (A) (B) (A) (B) (B) (A) (B) (A) (A) (A) (B)
                 (A) (B) (B) (A) (A) (B) (A) (B) (A)
       Virtual   (B) (A) (B) (A) (A) (B) (A) (B) (B) (B) (A) (A)
                 (A) (B) (A) (B) (A) (B) (A) (B) (B) (A) (A) (B)
                 (B) (A) (B) (A) (B) (A) (A) (B) (A) (B) (B) (B)
                 (A) (A) (B) (A) (B) (A) (A) (B) (A) (B) (B) (A)
                 (B) (A) (A) (A) (B) (B) (A) (B) (B) (A) (B) (A)
                 (B) (A) (B) (B) (A) (B) (A) (A) (B) (A) (B) (B)
                 (A) (A) (A) (B) (A) (B) (B) (B) (A) (A) (A) (A)
                 (B) (A) (B) (B) (A) (A) (B) (B) (A) (A) (B) (B)
                 (A) (A) (B) (B) (A) (B) (A) (B) (B) (A) (B) (A)
                 (A) (B) (B) (A) (A) (B) (A) (B) (B) (A) (A) (B)
                 (B) (A) (A) (B) (A) (B) (A) (B) (A) (B) (A) (B)
                 (B) (A) (A) (B) (A) (A) (B) (B) (A) (B) (B) (A)
                 (B) (A) (B) (A) (B) (A) (B) (A) (A) (B) (B) (A)
                 (B) (A) (A) (A) (B) (B) (B) (A) (A) (B) (A) (B)
                 (A) (B) (A) (A) (A) (B) (B) (B) (A) (B) (A) (B)
                 (B) (A) (A) (B) (A) (B) (B) (B) (A) (A) (A) (B)
                 (A) (B) (A) (A) (B) (B) (B) (A) (A) (B) (A) (A)
                 (B) (B) (A) (A) (B) (B) (A) (B) (A) (B) (A) (A)
                 (B) (A) (B) (A) (B) (A) (B) (A) (B) (B) (A) (B)
                 (A) (B) (B) (A) (A) (A) (A) (B) (B) (B) (A) (A)
                 (B) (B) (B) (A) (A) (B) (A) (A) (B) (B) (A) (B)
                 (B) (A) (B) (A) (A) (B) (B) (A) (A) (B) (A) (B)
                 (A) (B) (A) (B) (B) (A) (B) (A) (B) (A) (A) (A)
                 (B) (B) (A) (A) (B) (B) (A) (A) (B) (B) (A) (B)
                 (B) (A) (A) (B) (A) (B) (A)
 Beta  Orbitals:
       Occupied  (A) (A) (B) (A) (B) (A) (B) (B) (A) (A) (B) (A)
                 (B) (A) (B) (A) (B) (B) (A) (B) (A) (A) (A) (B)
                 (A) (B) (B) (A) (A) (B)
       Virtual   (A) (B) (A) (B) (A) (B) (A) (A) (B) (A) (B) (B)
                 (B) (A) (A) (A) (B) (A) (B) (A) (B) (A) (B) (B)
                 (A) (A) (B) (B) (A) (B) (A) (B) (A) (A) (B) (A)
                 (B) (B) (B) (A) (A) (B) (A) (B) (A) (A) (B) (A)
                 (B) (B) (A) (B) (A) (A) (A) (B) (B) (A) (B) (B)
                 (A) (B) (A) (B) (A) (B) (B) (A) (B) (A) (A) (B)
                 (A) (B) (B) (A) (A) (A) (B) (A) (B) (B) (B) (A)
                 (A) (A) (A) (B) (A) (B) (B) (A) (A) (B) (B) (A)
                 (A) (B) (B) (A) (A) (B) (B) (A) (B) (A) (B) (B)
                 (A) (B) (A) (A) (B) (B) (A) (A) (B) (A) (B) (B)
                 (A) (A) (B) (B) (A) (A) (B) (A) (B) (A) (B) (A)
                 (B) (A) (B) (B) (A) (A) (B) (A) (A) (B) (B) (A)
                 (B) (B) (A) (B) (A) (B) (A) (B) (A) (B) (A) (A)
                 (B) (B) (A) (B) (A) (A) (A) (B) (B) (B) (A) (A)
                 (B) (A) (B) (A) (B) (A) (A) (A) (B) (B) (B) (A)
                 (B) (A) (B) (B) (A) (A) (B) (A) (B) (B) (B) (A)
                 (A) (A) (B) (A) (B) (A) (A) (B) (B) (B) (A) (A)
                 (B) (A) (A) (B) (B) (A) (A) (B) (B) (A) (B) (A)
                 (B) (A) (A) (B) (A) (B) (A) (B) (A) (B) (A) (B)
                 (B) (A) (B) (A) (B) (B) (A) (A) (A) (A) (B) (B)
                 (B) (A) (A) (B) (B) (B) (A) (A) (B) (A) (A) (B)
                 (B) (A) (B) (B) (A) (B) (A) (A) (B) (B) (A) (A)
                 (B) (A) (B) (A) (B) (A) (B) (B) (A) (B) (A) (B)
                 (A) (A) (A) (B) (B) (A) (A) (B) (B) (A) (A) (B)
                 (B) (A) (B) (B) (A) (A) (B) (A) (B) (A)
 Initial guess <Sx>= 0.0000 <Sy>= 0.0000 <Sz>= 1.5000 <S**2>= 3.7500 S= 1.5000
 Keep R1 and R2 ints in memory in symmetry-blocked form, NReq=2184082506.
 Requested convergence on RMS density matrix=1.00D-08 within  64 cycles.
 Requested convergence on MAX density matrix=1.00D-06.
 Requested convergence on             energy=1.00D-06.
 No special actions if energy rises.
 Rare condition: small coef for last iteration:  0.000D+00
 Rare condition: small coef for last iteration:  0.000D+00
 Rare condition: small coef for last iteration:  0.000D+00
 Rare condition: small coef for last iteration:  0.000D+00
 Rare condition: small coef for last iteration:  0.000D+00
 Rare condition: small coef for last iteration:  0.000D+00
 SCF Done:  E(UHF) =  -1934.67356825     A.U. after   29 cycles
            NFock= 29  Conv=0.47D-08     -V/T= 1.9998
 <Sx>= 0.0000 <Sy>= 0.0000 <Sz>= 1.5000 <S**2>= 3.7693 S= 1.5048
 <L.S>= 0.000000000000E+00
 Annihilation of the first spin contaminant:
 S**2 before annihilation     3.7693,   after     3.7502
 QCSCF skips out because SCF is already converged.

 **********************************************************************

            Population analysis using the SCF density.

 **********************************************************************

 Orbital symmetries:
 Alpha Orbitals:
       Occupied  (A) (A) (B) (B) (A) (A) (B) (A) (B) (A) (B) (B)
                 (A) (A) (B) (A) (A) (B) (B) (A) (B) (A) (A) (A)
                 (B) (B) (B) (A) (A) (B) (A) (B) (A)
       Virtual   (B) (A) (B) (A) (A) (A) (B) (A) (B) (B) (B) (A)
                 (A) (B) (A) (B) (A) (B) (A) (B) (A) (B) (B) (A)
                 (B) (A) (B) (A) (B) (B) (A) (A) (B) (B) (A) (B)
                 (A) (B) (A) (A) (A) (B) (A) (B) (A) (B) (A) (B)
                 (B) (A) (A) (B) (A) (B) (A) (B) (A) (B) (B) (A)
                 (B) (A) (B) (B) (A) (A) (B) (A) (B) (A) (B) (B)
                 (A) (A) (A) (B) (B) (B) (A) (B) (A) (A) (A) (B)
                 (A) (B) (A) (B) (A) (A) (B) (B) (A) (A) (B) (B)
                 (A) (A) (B) (B) (A) (B) (A) (B) (B) (A) (B) (A)
                 (A) (B) (A) (B) (A) (B) (B) (A) (B) (A) (A) (B)
                 (B) (A) (A) (B) (B) (A) (A) (A) (B) (B) (B) (A)
                 (B) (A) (B) (A) (A) (A) (B) (B) (B) (A) (A) (A)
                 (B) (B) (B) (A) (B) (A) (A) (B) (A) (B) (B) (A)
                 (A) (B) (A) (B) (A) (B) (B) (A) (A) (B) (A) (A)
                 (B) (B) (A) (A) (B) (A) (B) (B) (A) (B) (B) (A)
                 (B) (A) (A) (B) (B) (A) (B) (B) (A) (A) (A) (B)
                 (A) (B) (A) (A) (B) (B) (A) (B) (B) (A) (A) (B)
                 (A) (B) (A) (A) (B) (A) (B) (B) (A) (B) (A) (A)
                 (B) (A) (B) (B) (A) (A) (B) (A) (B) (B) (A) (A)
                 (B) (B) (A) (B) (A) (B) (A) (A) (B) (B) (A) (A)
                 (B) (B) (B) (A) (A) (B) (A) (A) (B) (B) (A) (B)
                 (B) (A) (B) (A) (B) (A) (B) (A) (A) (B) (A) (B)
                 (B) (A) (A) (B) (B) (A) (B) (A) (B) (A) (A) (A)
                 (B) (B) (A) (A) (B) (B) (A) (A) (B) (B) (A) (B)
                 (A) (B) (A) (B) (A) (B) (A)
 Beta  Orbitals:
       Occupied  (A) (A) (B) (A) (B) (A) (B) (A) (B) (A) (B) (A)
                 (B) (A) (B) (A) (B) (B) (A) (A) (B) (A) (A) (B)
                 (B) (A) (B) (A) (A) (B)
       Virtual   (A) (B) (B) (A) (A) (B) (A) (A) (A) (B) (B) (B)
                 (B) (A) (A) (A) (B) (A) (B) (A) (B) (A) (B) (B)
                 (A) (B) (A) (B) (A) (B) (A) (B) (A) (A) (B) (B)
                 (A) (B) (B) (A) (B) (A) (A) (B) (A) (A) (B) (A)
                 (B) (A) (B) (B) (A) (A) (A) (B) (B) (A) (B) (B)
                 (A) (B) (A) (B) (A) (B) (B) (A) (A) (B) (A) (B)
                 (B) (A) (B) (A) (A) (A) (B) (B) (A) (B) (B) (A)
                 (A) (A) (A) (B) (B) (A) (B) (A) (A) (B) (B) (A)
                 (A) (B) (B) (A) (A) (B) (B) (A) (B) (A) (B) (B)
                 (A) (B) (A) (A) (B) (A) (B) (A) (B) (A) (B) (B)
                 (A) (A) (B) (B) (A) (A) (B) (B) (A) (A) (A) (B)
                 (B) (B) (A) (B) (A) (B) (A) (A) (A) (B) (B) (B)
                 (A) (A) (B) (A) (B) (B) (A) (B) (A) (A) (B) (A)
                 (B) (B) (A) (B) (A) (A) (B) (A) (B) (B) (A) (A)
                 (B) (A) (A) (B) (A) (B) (A) (B) (A) (B) (B) (A)
                 (B) (A) (B) (B) (A) (A) (B) (A) (B) (B) (B) (A)
                 (A) (A) (B) (A) (B) (A) (A) (B) (B) (A) (B) (B)
                 (A) (A) (B) (A) (B) (A) (B) (A) (A) (B) (B) (A)
                 (B) (A) (A) (B) (A) (B) (B) (A) (A) (B) (A) (B)
                 (B) (A) (A) (B) (B) (A) (B) (A) (B) (A) (A) (B)
                 (B) (A) (A) (B) (B) (B) (A) (A) (B) (A) (A) (B)
                 (B) (A) (B) (B) (A) (B) (A) (A) (B) (B) (A) (A)
                 (B) (A) (B) (B) (A) (A) (B) (B) (A) (B) (A) (B)
                 (A) (A) (A) (B) (B) (A) (A) (B) (B) (A) (A) (B)
                 (B) (B) (A) (A) (B) (A) (B) (A) (B) (A)
 The electronic state is 4-B.
 Alpha  occ. eigenvalues -- -353.58048 -44.63613 -39.20172 -39.19881 -39.19872
 Alpha  occ. eigenvalues --  -11.44914 -11.44914 -11.40050 -11.40050  -5.92316
 Alpha  occ. eigenvalues --   -4.13496  -4.12210  -4.12205  -1.25533  -1.23741
 Alpha  occ. eigenvalues --   -1.11764  -1.07229  -1.07171  -1.06524  -1.06514
 Alpha  occ. eigenvalues --   -1.04830  -1.02574  -0.80710  -0.80023  -0.79998
 Alpha  occ. eigenvalues --   -0.79424  -0.72002  -0.71968  -0.68205  -0.68011
 Alpha  occ. eigenvalues --   -0.67560  -0.66083  -0.32752
 Alpha virt. eigenvalues --   -0.13092  -0.13032  -0.02098  -0.00112   0.02163
 Alpha virt. eigenvalues --    0.03919   0.03953   0.04767   0.05115   0.06377
 Alpha virt. eigenvalues --    0.08218   0.09848   0.10818   0.11859   0.13937
 Alpha virt. eigenvalues --    0.15413   0.16705   0.20165   0.22167   0.23142
 Alpha virt. eigenvalues --    0.23278   0.23670   0.24502   0.24715   0.28535
 Alpha virt. eigenvalues --    0.29615   0.35386   0.39731   0.40483   0.41458
 Alpha virt. eigenvalues --    0.41500   0.42284   0.43444   0.43713   0.45272
 Alpha virt. eigenvalues --    0.47051   0.47895   0.49367   0.49406   0.50670
 Alpha virt. eigenvalues --    0.51515   0.52651   0.53487   0.55113   0.56040
 Alpha virt. eigenvalues --    0.56637   0.61626   0.62345   0.68588   0.70525
 Alpha virt. eigenvalues --    0.72362   0.76157   0.77309   0.79030   0.80651
 Alpha virt. eigenvalues --    0.82740   0.85420   0.85887   0.86991   0.92027
 Alpha virt. eigenvalues --    0.93011   0.95181   0.96735   0.99787   0.99921
 Alpha virt. eigenvalues --    1.04932   1.05129   1.06948   1.08358   1.09727
 Alpha virt. eigenvalues --    1.10217   1.10550   1.11323   1.12293   1.14696
 Alpha virt. eigenvalues --    1.17459   1.18178   1.18720   1.18868   1.20262
 Alpha virt. eigenvalues --    1.20856   1.24489   1.25757   1.28992   1.29359
 Alpha virt. eigenvalues --    1.32302   1.33113   1.34295   1.34475   1.38577
 Alpha virt. eigenvalues --    1.38721   1.40206   1.41860   1.44023   1.46025
 Alpha virt. eigenvalues --    1.46244   1.52667   1.54036   1.55440   1.57969
 Alpha virt. eigenvalues --    1.62253   1.63976   1.71868   1.73605   2.30168
 Alpha virt. eigenvalues --    2.32453   2.33755   2.35988   2.41117   2.45698
 Alpha virt. eigenvalues --    2.46832   2.47364   2.49574   2.51589   2.55072
 Alpha virt. eigenvalues --    2.55156   2.58173   2.58288   2.65656   2.66308
 Alpha virt. eigenvalues --    2.68032   2.71189   2.71276   2.72632   2.77709
 Alpha virt. eigenvalues --    2.78152   2.80677   2.84499   2.85477   2.88680
 Alpha virt. eigenvalues --    2.89706   2.90967   2.91415   2.92245   2.93990
 Alpha virt. eigenvalues --    2.94927   2.95645   2.99567   3.00326   3.02218
 Alpha virt. eigenvalues --    3.05638   3.08666   3.10043   3.10484   3.11529
 Alpha virt. eigenvalues --    3.11840   3.13423   3.15343   3.18327   3.20654
 Alpha virt. eigenvalues --    3.21641   3.21854   3.23279   3.24605   3.25450
 Alpha virt. eigenvalues --    3.27089   3.30286   3.30531   3.33015   3.35603
 Alpha virt. eigenvalues --    3.36970   3.38979   3.41133   3.43116   3.47518
 Alpha virt. eigenvalues --    3.47675   3.48470   3.55778   3.56754   3.58261
 Alpha virt. eigenvalues --    3.58314   3.59080   3.60786   3.61842   3.63279
 Alpha virt. eigenvalues --    3.66128   3.68105   3.68391   3.78218   3.78516
 Alpha virt. eigenvalues --    3.80168   3.80466   3.86778   3.89597   3.91029
 Alpha virt. eigenvalues --    3.91251   3.91999   3.93822   3.94750   3.96083
 Alpha virt. eigenvalues --    3.98313   4.01023   4.01681   4.02242   4.02245
 Alpha virt. eigenvalues --    4.08399   4.11315   4.12172   4.12981   4.13539
 Alpha virt. eigenvalues --    4.15068   4.15456   4.19741   4.20723   4.20779
 Alpha virt. eigenvalues --    4.21304   4.23383   4.24188   4.24297   4.26381
 Alpha virt. eigenvalues --    4.28088   4.28482   4.33138   4.37093   4.37177
 Alpha virt. eigenvalues --    4.39749   4.40429   4.40607   4.42544   4.46937
 Alpha virt. eigenvalues --    4.47920   4.48367   4.49891   4.56228   4.57045
 Alpha virt. eigenvalues --    4.62286   4.72830   4.73302   4.73439   4.81301
 Alpha virt. eigenvalues --    4.82284   4.82457   4.87676   4.94745   4.96927
 Alpha virt. eigenvalues --    4.97411   4.97469   4.98047   5.02226   5.03322
 Alpha virt. eigenvalues --    5.03440   5.04825   5.10833   5.10893   5.11509
 Alpha virt. eigenvalues --    5.22527   5.24544   5.32649   5.33454   5.34652
 Alpha virt. eigenvalues --    5.38048   5.38195   5.44957   5.46150   5.51357
 Alpha virt. eigenvalues --    5.51446   5.51755   5.51796   5.54182   5.55524
 Alpha virt. eigenvalues --    5.58691   5.59802   5.63654   5.64454   6.08252
 Alpha virt. eigenvalues --    6.09743   6.10938   6.11197   6.11800   6.13044
 Alpha virt. eigenvalues --   10.64989  10.67434  10.92435  10.96144  11.39725
 Alpha virt. eigenvalues --   11.99151  12.09001  13.59201  13.62016  15.96739
 Alpha virt. eigenvalues --   15.96754  15.98456  15.98855  16.04130  16.04556
 Alpha virt. eigenvalues --   16.17594  16.64990  16.64990  16.65044  16.65047
 Alpha virt. eigenvalues --   16.65062  16.65088  16.65434  16.65441  16.66383
  Beta  occ. eigenvalues -- -353.57667 -44.63021 -39.19710 -39.19704 -39.19352
  Beta  occ. eigenvalues --  -11.42369 -11.42369 -11.40128 -11.40128  -5.90792
  Beta  occ. eigenvalues --   -4.11851  -4.11831  -4.11350  -1.19033  -1.18375
  Beta  occ. eigenvalues --   -1.07060  -1.06633  -1.06222  -1.06216  -1.06026
  Beta  occ. eigenvalues --   -0.99497  -0.97899  -0.79006  -0.78564  -0.72746
  Beta  occ. eigenvalues --   -0.72500  -0.69751  -0.69669  -0.67416  -0.67253
  Beta virt. eigenvalues --   -0.25260  -0.16266  -0.07156  -0.06887  -0.05837
  Beta virt. eigenvalues --   -0.00504   0.03879   0.04681   0.05590   0.05857
  Beta virt. eigenvalues --    0.06221   0.07021   0.08804   0.10069   0.11360
  Beta virt. eigenvalues --    0.11879   0.13797   0.15927   0.16868   0.19129
  Beta virt. eigenvalues --    0.22119   0.22944   0.23902   0.24414   0.24747
  Beta virt. eigenvalues --    0.26131   0.26723   0.30799   0.34393   0.39156
  Beta virt. eigenvalues --    0.40421   0.43439   0.43717   0.44386   0.45194
  Beta virt. eigenvalues --    0.45463   0.46447   0.47326   0.48593   0.50160
  Beta virt. eigenvalues --    0.50492   0.50730   0.51393   0.53102   0.53921
  Beta virt. eigenvalues --    0.55031   0.57751   0.59044   0.59492   0.63424
  Beta virt. eigenvalues --    0.63793   0.69929   0.72174   0.74272   0.77857
  Beta virt. eigenvalues --    0.78204   0.79420   0.81806   0.85313   0.88394
  Beta virt. eigenvalues --    0.88401   0.89787   0.92717   0.93864   0.97135
  Beta virt. eigenvalues --    0.98174   1.00245   1.00539   1.05856   1.06493
  Beta virt. eigenvalues --    1.08193   1.09201   1.10961   1.11303   1.11615
  Beta virt. eigenvalues --    1.12929   1.13987   1.17164   1.18460   1.18840
  Beta virt. eigenvalues --    1.19203   1.19281   1.21012   1.22382   1.25694
  Beta virt. eigenvalues --    1.28449   1.31421   1.32918   1.33497   1.34178
  Beta virt. eigenvalues --    1.35016   1.36208   1.39696   1.40101   1.40700
  Beta virt. eigenvalues --    1.42413   1.45612   1.47225   1.47502   1.53982
  Beta virt. eigenvalues --    1.54917   1.57211   1.59036   1.62928   1.64853
  Beta virt. eigenvalues --    1.73100   1.75075   2.30637   2.32935   2.35162
  Beta virt. eigenvalues --    2.37537   2.42178   2.46592   2.47787   2.48289
  Beta virt. eigenvalues --    2.50315   2.52307   2.55823   2.59028   2.61521
  Beta virt. eigenvalues --    2.61840   2.66593   2.67421   2.69617   2.72698
  Beta virt. eigenvalues --    2.74232   2.74377   2.79085   2.80529   2.82128
  Beta virt. eigenvalues --    2.87747   2.87765   2.90311   2.91433   2.91712
  Beta virt. eigenvalues --    2.91988   2.93253   2.94754   2.96086   2.96560
  Beta virt. eigenvalues --    3.00617   3.01596   3.03284   3.07064   3.09213
  Beta virt. eigenvalues --    3.10737   3.12069   3.12178   3.12477   3.14772
  Beta virt. eigenvalues --    3.16931   3.20219   3.21438   3.21930   3.22219
  Beta virt. eigenvalues --    3.23747   3.25431   3.27640   3.30392   3.32481
  Beta virt. eigenvalues --    3.33066   3.36052   3.37620   3.38469   3.40908
  Beta virt. eigenvalues --    3.42900   3.44341   3.47840   3.47956   3.49191
  Beta virt. eigenvalues --    3.56196   3.56982   3.58583   3.58808   3.59509
  Beta virt. eigenvalues --    3.61227   3.62650   3.63931   3.66841   3.68748
  Beta virt. eigenvalues --    3.69696   3.78917   3.79439   3.80746   3.81868
  Beta virt. eigenvalues --    3.87930   3.89945   3.91607   3.91758   3.92511
  Beta virt. eigenvalues --    3.94429   3.95383   3.97352   3.98911   4.01440
  Beta virt. eigenvalues --    4.02233   4.02814   4.03102   4.09111   4.12311
  Beta virt. eigenvalues --    4.12690   4.13628   4.14338   4.15483   4.15855
  Beta virt. eigenvalues --    4.20899   4.21374   4.21529   4.22122   4.24000
  Beta virt. eigenvalues --    4.24736   4.24865   4.26585   4.28397   4.28846
  Beta virt. eigenvalues --    4.33997   4.37580   4.37780   4.40128   4.40565
  Beta virt. eigenvalues --    4.40762   4.43201   4.47582   4.48369   4.48769
  Beta virt. eigenvalues --    4.50169   4.57167   4.58109   4.63080   4.73544
  Beta virt. eigenvalues --    4.74188   4.74384   4.82041   4.82917   4.83102
  Beta virt. eigenvalues --    4.88993   4.95778   4.97228   4.97720   4.97782
  Beta virt. eigenvalues --    4.98553   5.02821   5.03796   5.03917   5.05493
  Beta virt. eigenvalues --    5.11406   5.11916   5.12207   5.23133   5.25462
  Beta virt. eigenvalues --    5.33309   5.34113   5.35544   5.38491   5.39074
  Beta virt. eigenvalues --    5.45329   5.46438   5.51864   5.51963   5.52067
  Beta virt. eigenvalues --    5.52176   5.54483   5.56024   5.59075   5.60177
  Beta virt. eigenvalues --    5.64360   5.65230   6.09002   6.09993   6.11233
  Beta virt. eigenvalues --    6.11387   6.12193   6.13836  10.65175  10.67619
  Beta virt. eigenvalues --   10.92646  10.96370  11.41176  12.00805  12.10660
  Beta virt. eigenvalues --   13.59253  13.62065  15.96844  15.96859  15.98536
  Beta virt. eigenvalues --   15.98937  16.05179  16.05600  16.19114  16.64955
  Beta virt. eigenvalues --   16.64956  16.64993  16.64993  16.65175  16.65206
  Beta virt. eigenvalues --   16.65780  16.65786  16.66824
          Condensed to atoms (all electrons):
               1          2          3          4          5          6
     1  Zn  30.522865  -0.466179   0.000877  -0.007605  -0.006911  -0.002784
     2  C   -0.466179   5.579648   0.320746   0.417015   0.417308  -0.015038
     3  C    0.000877   0.320746   4.812370  -0.033043  -0.033297   0.399484
     4  H   -0.007605   0.417015  -0.033043   0.486556  -0.032051  -0.002867
     5  H   -0.006911   0.417308  -0.033297  -0.032051   0.485464  -0.002910
     6  H   -0.002784  -0.015038   0.399484  -0.002867  -0.002910   0.491874
     7  H   -0.010206  -0.025708   0.416586  -0.004148   0.004487  -0.021800
     8  H   -0.010575  -0.026246   0.416346   0.004574  -0.004192  -0.021717
     9  C   -0.466179   0.035102  -0.000367   0.000304   0.000256   0.000013
    10  C    0.000877  -0.000367  -0.000015  -0.000018  -0.000033   0.000000
    11  H   -0.007605   0.000304  -0.000018  -0.000014   0.000022   0.000001
    12  H   -0.006911   0.000256  -0.000033   0.000022   0.000008   0.000001
    13  H   -0.002784   0.000013   0.000000   0.000001   0.000001   0.000000
    14  H   -0.010206   0.000318  -0.000005   0.000017   0.000007   0.000000
    15  H   -0.010575   0.000330  -0.000004  -0.000003   0.000037   0.000000
               7          8          9         10         11         12
     1  Zn  -0.010206  -0.010575  -0.466179   0.000877  -0.007605  -0.006911
     2  C   -0.025708  -0.026246   0.035102  -0.000367   0.000304   0.000256
     3  C    0.416586   0.416346  -0.000367  -0.000015  -0.000018  -0.000033
     4  H   -0.004148   0.004574   0.000304  -0.000018  -0.000014   0.000022
     5  H    0.004487  -0.004192   0.000256  -0.000033   0.000022   0.000008
     6  H   -0.021800  -0.021717   0.000013   0.000000   0.000001   0.000001
     7  H    0.532080  -0.030260   0.000318  -0.000005   0.000017   0.000007
     8  H   -0.030260   0.533970   0.000330  -0.000004  -0.000003   0.000037
     9  C    0.000318   0.000330   5.579648   0.320746   0.417015   0.417308
    10  C   -0.000005  -0.000004   0.320746   4.812370  -0.033043  -0.033297
    11  H    0.000017  -0.000003   0.417015  -0.033043   0.486556  -0.032051
    12  H    0.000007   0.000037   0.417308  -0.033297  -0.032051   0.485464
    13  H    0.000000   0.000000  -0.015038   0.399484  -0.002867  -0.002910
    14  H    0.000001   0.000001  -0.025708   0.416586  -0.004148   0.004487
    15  H    0.000001  -0.000001  -0.026246   0.416346   0.004574  -0.004192
              13         14         15
     1  Zn  -0.002784  -0.010206  -0.010575
     2  C    0.000013   0.000318   0.000330
     3  C    0.000000  -0.000005  -0.000004
     4  H    0.000001   0.000017  -0.000003
     5  H    0.000001   0.000007   0.000037
     6  H    0.000000   0.000000   0.000000
     7  H    0.000000   0.000001   0.000001
     8  H    0.000000   0.000001  -0.000001
     9  C   -0.015038  -0.025708  -0.026246
    10  C    0.399484   0.416586   0.416346
    11  H   -0.002867  -0.004148   0.004574
    12  H   -0.002910   0.004487  -0.004192
    13  H    0.491874  -0.021800  -0.021717
    14  H   -0.021800   0.532080  -0.030260
    15  H   -0.021717  -0.030260   0.533970
          Atomic-Atomic Spin Densities.
               1          2          3          4          5          6
     1  Zn   2.541402  -0.505061  -0.002210  -0.013756  -0.013980  -0.004415
     2  C   -0.505061   1.256611  -0.033473   0.017762   0.017963  -0.011683
     3  C   -0.002210  -0.033473  -0.032107   0.002998   0.003035   0.016804
     4  H   -0.013756   0.017762   0.002998  -0.023085   0.005586  -0.001283
     5  H   -0.013980   0.017963   0.003035   0.005586  -0.022964  -0.001295
     6  H   -0.004415  -0.011683   0.016804  -0.001283  -0.001295   0.068409
     7  H   -0.012099   0.002421   0.004710   0.000592   0.000187  -0.002432
     8  H   -0.012393   0.002432   0.004748   0.000191   0.000604  -0.002436
     9  C   -0.505061   0.035499  -0.000325   0.000344   0.000334   0.000009
    10  C   -0.002210  -0.000325   0.000009   0.000001   0.000011   0.000000
    11  H   -0.013756   0.000344   0.000001   0.000007   0.000004   0.000000
    12  H   -0.013980   0.000334   0.000011   0.000004   0.000005   0.000000
    13  H   -0.004415   0.000009   0.000000   0.000000   0.000000   0.000000
    14  H   -0.012099   0.000305  -0.000001   0.000006   0.000007   0.000000
    15  H   -0.012393   0.000324  -0.000002   0.000003   0.000011   0.000000
               7          8          9         10         11         12
     1  Zn  -0.012099  -0.012393  -0.505061  -0.002210  -0.013756  -0.013980
     2  C    0.002421   0.002432   0.035499  -0.000325   0.000344   0.000334
     3  C    0.004710   0.004748  -0.000325   0.000009   0.000001   0.000011
     4  H    0.000592   0.000191   0.000344   0.000001   0.000007   0.000004
     5  H    0.000187   0.000604   0.000334   0.000011   0.000004   0.000005
     6  H   -0.002432  -0.002436   0.000009   0.000000   0.000000   0.000000
     7  H    0.008101   0.000660   0.000305  -0.000001   0.000006   0.000007
     8  H    0.000660   0.008397   0.000324  -0.000002   0.000003   0.000011
     9  C    0.000305   0.000324   1.256611  -0.033473   0.017762   0.017963
    10  C   -0.000001  -0.000002  -0.033473  -0.032107   0.002998   0.003035
    11  H    0.000006   0.000003   0.017762   0.002998  -0.023085   0.005586
    12  H    0.000007   0.000011   0.017963   0.003035   0.005586  -0.022964
    13  H    0.000000   0.000000  -0.011683   0.016804  -0.001283  -0.001295
    14  H    0.000001   0.000001   0.002421   0.004710   0.000592   0.000187
    15  H    0.000001   0.000002   0.002432   0.004748   0.000191   0.000604
              13         14         15
     1  Zn  -0.004415  -0.012099  -0.012393
     2  C    0.000009   0.000305   0.000324
     3  C    0.000000  -0.000001  -0.000002
     4  H    0.000000   0.000006   0.000003
     5  H    0.000000   0.000007   0.000011
     6  H    0.000000   0.000000   0.000000
     7  H    0.000000   0.000001   0.000001
     8  H    0.000000   0.000001   0.000002
     9  C   -0.011683   0.002421   0.002432
    10  C    0.016804   0.004710   0.004748
    11  H   -0.001283   0.000592   0.000191
    12  H   -0.001295   0.000187   0.000604
    13  H    0.068409  -0.002432  -0.002436
    14  H   -0.002432   0.008101   0.000660
    15  H   -0.002436   0.000660   0.008397
 Mulliken charges and spin densities:
               1          2
     1  Zn   0.483900   1.413574
     2  C   -0.237502   0.783461
     3  C   -0.299627  -0.035802
     4  H    0.171261  -0.010631
     5  H    0.171804  -0.010494
     6  H    0.175745   0.061678
     7  H    0.138631   0.002459
     8  H    0.137739   0.002542
     9  C   -0.237502   0.783461
    10  C   -0.299627  -0.035802
    11  H    0.171261  -0.010631
    12  H    0.171804  -0.010494
    13  H    0.175745   0.061678
    14  H    0.138631   0.002459
    15  H    0.137739   0.002542
 Sum of Mulliken charges =   1.00000   3.00000
 Mulliken charges and spin densities with hydrogens summed into heavy atoms:
               1          2
     1  Zn   0.483900   1.413574
     2  C    0.105563   0.762337
     3  C    0.152487   0.030876
     9  C    0.105563   0.762337
    10  C    0.152487   0.030876
 Electronic spatial extent (au):  <R**2>=            939.4843
 Charge=              1.0000 electrons
 Dipole moment (field-independent basis, Debye):
    X=              0.0000    Y=              0.0000    Z=             -0.0034  Tot=              0.0034
 Quadrupole moment (field-independent basis, Debye-Ang):
   XX=            -37.9829   YY=            -15.7142   ZZ=            -40.8651
   XY=              5.3802   XZ=              0.0000   YZ=              0.0000
 Traceless Quadrupole moment (field-independent basis, Debye-Ang):
   XX=             -6.4622   YY=             15.8066   ZZ=             -9.3443
   XY=              5.3802   XZ=              0.0000   YZ=              0.0000
 Octapole moment (field-independent basis, Debye-Ang**2):
  XXX=              0.0000  YYY=              0.0000  ZZZ=              1.9763  XYY=              0.0000
  XXY=              0.0000  XXZ=             -0.4459  XZZ=              0.0000  YZZ=              0.0000
  YYZ=             -0.9573  XYZ=             -1.6785
 Hexadecapole moment (field-independent basis, Debye-Ang**3):
 XXXX=           -249.4532 YYYY=           -705.6851 ZZZZ=            -97.5636 XXXY=           -131.7489
 XXXZ=              0.0000 YYYX=            -89.5061 YYYZ=              0.0000 ZZZX=              0.0000
 ZZZY=              0.0000 XXYY=           -164.7131 XXZZ=            -55.6816 YYZZ=           -165.8367
 XXYZ=              0.0000 YYXZ=              0.0000 ZZXY=            -49.9633
 N-N= 3.207392817687D+02 E-N=-5.253331490170D+03  KE= 1.935090727353D+03
 Symmetry A    KE= 1.418050004929D+03
 Symmetry B    KE= 5.170407224245D+02
                          Isotropic Fermi Contact Couplings
        Atom                 a.u.       MegaHertz       Gauss      10(-4) cm-1
     1  Zn(67)             4.84489     452.57162     161.48880     150.96164
     2  C(13)              0.38161     143.00144      51.02647      47.70014
     3  C(13)             -0.03047     -11.41666      -4.07375      -3.80819
     4  H(1)              -0.00198      -2.94759      -1.05177      -0.98321
     5  H(1)              -0.00186      -2.77077      -0.98868      -0.92423
     6  H(1)               0.03424      51.01565      18.20365      17.01699
     7  H(1)               0.00402       5.98836       2.13680       1.99750
     8  H(1)               0.00406       6.04931       2.15854       2.01783
     9  C(13)              0.38161     143.00144      51.02647      47.70014
    10  C(13)             -0.03047     -11.41666      -4.07375      -3.80819
    11  H(1)              -0.00198      -2.94759      -1.05177      -0.98321
    12  H(1)              -0.00186      -2.77077      -0.98868      -0.92423
    13  H(1)               0.03424      51.01565      18.20365      17.01699
    14  H(1)               0.00402       5.98836       2.13680       1.99750
    15  H(1)               0.00406       6.04931       2.15854       2.01783
 --------------------------------------------------------
       Center         ----  Spin Dipole Couplings  ----
                      3XX-RR        3YY-RR        3ZZ-RR
 --------------------------------------------------------
     1   Atom       -1.156738      2.298490     -1.141752
     2   Atom       -0.496037      1.000786     -0.504749
     3   Atom       -0.016973      0.053205     -0.036232
     4   Atom       -0.058718     -0.000114      0.058832
     5   Atom       -0.001914     -0.000224      0.002138
     6   Atom       -0.002330      0.015677     -0.013347
     7   Atom        0.014536     -0.001598     -0.012938
     8   Atom        0.002595     -0.001672     -0.000924
     9   Atom       -0.496037      1.000786     -0.504749
    10   Atom       -0.016973      0.053205     -0.036232
    11   Atom       -0.058718     -0.000114      0.058832
    12   Atom       -0.001914     -0.000224      0.002138
    13   Atom       -0.002330      0.015677     -0.013347
    14   Atom        0.014536     -0.001598     -0.012938
    15   Atom        0.002595     -0.001672     -0.000924
 --------------------------------------------------------
                        XY            XZ            YZ
 --------------------------------------------------------
     1   Atom        0.003805      0.000000      0.000000
     2   Atom       -0.071843     -0.002351      0.016719
     3   Atom        0.039966     -0.004827     -0.009496
     4   Atom       -0.012843     -0.040886      0.028643
     5   Atom       -0.024296      0.071577     -0.019791
     6   Atom        0.004141     -0.002767     -0.001028
     7   Atom        0.013911      0.007955      0.002690
     8   Atom        0.011166     -0.015811     -0.008690
     9   Atom       -0.071843      0.002351     -0.016719
    10   Atom        0.039966      0.004827      0.009496
    11   Atom       -0.012843      0.040886     -0.028643
    12   Atom       -0.024296     -0.071577      0.019791
    13   Atom        0.004141      0.002767      0.001028
    14   Atom        0.013911     -0.007955     -0.002690
    15   Atom        0.011166      0.015811      0.008690
 --------------------------------------------------------


 ---------------------------------------------------------------------------------
              Anisotropic Spin Dipole Couplings in Principal Axis System
 ---------------------------------------------------------------------------------

       Atom             a.u.   MegaHertz   Gauss  10(-4) cm-1        Axes

              Baa    -1.1567   -38.694   -13.807   -12.907  1.0000 -0.0011  0.0000
     1 Zn(67) Bbb    -1.1418   -38.192   -13.628   -12.740  0.0000  0.0000  1.0000
              Bcc     2.2985    76.886    27.435    25.647  0.0011  1.0000  0.0000
 
              Baa    -0.5053   -67.812   -24.197   -22.620  0.2554  0.0015  0.9668
     2 C(13)  Bbb    -0.4991   -66.970   -23.897   -22.339  0.9656  0.0491 -0.2552
              Bcc     1.0044   134.783    48.094    44.959 -0.0478  0.9988  0.0111
 
              Baa    -0.0374    -5.015    -1.790    -1.673  0.2243  0.0032  0.9745
     3 C(13)  Bbb    -0.0350    -4.692    -1.674    -1.565  0.8837 -0.4223 -0.2020
              Bcc     0.0723     9.708     3.464     3.238  0.4109  0.9065 -0.0975
 
              Baa    -0.0717   -38.282   -13.660   -12.769  0.9563  0.0567  0.2870
     4 H(1)   Bbb    -0.0116    -6.171    -2.202    -2.058  0.0500  0.9349 -0.3513
              Bcc     0.0833    44.453    15.862    14.828 -0.2882  0.3503  0.8912
 
              Baa    -0.0717   -38.254   -13.650   -12.760  0.7243  0.0559 -0.6872
     5 H(1)   Bbb    -0.0116    -6.205    -2.214    -2.070  0.2028  0.9353  0.2899
              Bcc     0.0833    44.459    15.864    14.830  0.6589 -0.3494  0.6661
 
              Baa    -0.0140    -7.471    -2.666    -2.492  0.2301  0.0016  0.9732
     6 H(1)   Bbb    -0.0027    -1.423    -0.508    -0.475  0.9479 -0.2265 -0.2238
              Bcc     0.0167     8.894     3.174     2.967  0.2201  0.9740 -0.0536
 
              Baa    -0.0152    -8.118    -2.897    -2.708 -0.3148  0.1360  0.9394
     7 H(1)   Bbb    -0.0092    -4.886    -1.743    -1.630 -0.4200  0.8676 -0.2663
              Bcc     0.0244    13.004     4.640     4.338  0.8512  0.4783  0.2160
 
              Baa    -0.0152    -8.111    -2.894    -2.706  0.7032 -0.1316  0.6987
     8 H(1)   Bbb    -0.0092    -4.905    -1.750    -1.636 -0.2569  0.8693  0.4223
              Bcc     0.0244    13.016     4.645     4.342  0.6629  0.4765 -0.5775
 
              Baa    -0.5053   -67.812   -24.197   -22.620 -0.2554 -0.0015  0.9668
     9 C(13)  Bbb    -0.4991   -66.970   -23.897   -22.339  0.9656  0.0491  0.2552
              Bcc     1.0044   134.783    48.094    44.959 -0.0478  0.9988 -0.0111
 
              Baa    -0.0374    -5.015    -1.790    -1.673 -0.2243 -0.0032  0.9745
    10 C(13)  Bbb    -0.0350    -4.692    -1.674    -1.565  0.8837 -0.4223  0.2020
              Bcc     0.0723     9.708     3.464     3.238  0.4109  0.9065  0.0975
 
              Baa    -0.0717   -38.282   -13.660   -12.769  0.9563  0.0567 -0.2870
    11 H(1)   Bbb    -0.0116    -6.171    -2.202    -2.058  0.0500  0.9349  0.3513
              Bcc     0.0833    44.453    15.862    14.828  0.2882 -0.3503  0.8912
 
              Baa    -0.0717   -38.254   -13.650   -12.760  0.7243  0.0559  0.6872
    12 H(1)   Bbb    -0.0116    -6.205    -2.214    -2.070  0.2028  0.9353 -0.2899
              Bcc     0.0833    44.459    15.864    14.830 -0.6589  0.3494  0.6661
 
              Baa    -0.0140    -7.471    -2.666    -2.492 -0.2301 -0.0016  0.9732
    13 H(1)   Bbb    -0.0027    -1.423    -0.508    -0.475  0.9479 -0.2265  0.2238
              Bcc     0.0167     8.894     3.174     2.967  0.2201  0.9740  0.0536
 
              Baa    -0.0152    -8.118    -2.897    -2.708  0.3148 -0.1360  0.9394
    14 H(1)   Bbb    -0.0092    -4.886    -1.743    -1.630 -0.4200  0.8676  0.2663
              Bcc     0.0244    13.004     4.640     4.338  0.8512  0.4783 -0.2160
 
              Baa    -0.0152    -8.111    -2.894    -2.706  0.7032 -0.1316 -0.6987
    15 H(1)   Bbb    -0.0092    -4.905    -1.750    -1.636 -0.2569  0.8693 -0.4223
              Bcc     0.0244    13.016     4.645     4.342  0.6629  0.4765  0.5775
 

 ---------------------------------------------------------------------------------

 Range of M.O.s used for correlation:     1   328
 NBasis=   328 NAE=    33 NBE=    30 NFC=     0 NFV=     0
 NROrb=    328 NOA=    33 NOB=    30 NVA=   295 NVB=   298

 **** Warning!!: The largest alpha MO coefficient is  0.11716065D+02


 **** Warning!!: The largest beta MO coefficient is  0.11370868D+02

 Keep R1 and R2 ints in memory in symmetry-blocked form, NReq=2183654072.
 Orbital symmetries:
 Alpha Orbitals:
       Occupied  (A) (A) (B) (B) (A) (A) (B) (A) (B) (A) (B) (B)
                 (A) (A) (B) (A) (A) (B) (B) (A) (B) (A) (A) (A)
                 (B) (B) (B) (A) (A) (B) (A) (B) (A)
       Virtual   (B) (A) (B) (A) (A) (A) (B) (A) (B) (B) (B) (A)
                 (A) (B) (A) (B) (A) (B) (A) (B) (A) (B) (B) (A)
                 (B) (A) (B) (A) (B) (B) (A) (A) (B) (B) (A) (B)
                 (A) (B) (A) (A) (A) (B) (A) (B) (A) (B) (A) (B)
                 (B) (A) (A) (B) (A) (B) (A) (B) (A) (B) (B) (A)
                 (B) (A) (B) (B) (A) (A) (B) (A) (B) (A) (B) (B)
                 (A) (A) (A) (B) (B) (B) (A) (B) (A) (A) (A) (B)
                 (A) (B) (A) (B) (A) (A) (B) (B) (A) (A) (B) (B)
                 (A) (A) (B) (B) (A) (B) (A) (B) (B) (A) (B) (A)
                 (A) (B) (A) (B) (A) (B) (B) (A) (B) (A) (A) (B)
                 (B) (A) (A) (B) (B) (A) (A) (A) (B) (B) (B) (A)
                 (B) (A) (B) (A) (A) (A) (B) (B) (B) (A) (A) (A)
                 (B) (B) (B) (A) (B) (A) (A) (B) (A) (B) (B) (A)
                 (A) (B) (A) (B) (A) (B) (B) (A) (A) (B) (A) (A)
                 (B) (B) (A) (A) (B) (A) (B) (B) (A) (B) (B) (A)
                 (B) (A) (A) (B) (B) (A) (B) (B) (A) (A) (A) (B)
                 (A) (B) (A) (A) (B) (B) (A) (B) (B) (A) (A) (B)
                 (A) (B) (A) (A) (B) (A) (B) (B) (A) (B) (A) (A)
                 (B) (A) (B) (B) (A) (A) (B) (A) (B) (B) (A) (A)
                 (B) (B) (A) (B) (A) (B) (A) (A) (B) (B) (A) (A)
                 (B) (B) (B) (A) (A) (B) (A) (A) (B) (B) (A) (B)
                 (B) (A) (B) (A) (B) (A) (B) (A) (A) (B) (A) (B)
                 (B) (A) (A) (B) (B) (A) (B) (A) (B) (A) (A) (A)
                 (B) (B) (A) (A) (B) (B) (A) (A) (B) (B) (A) (B)
                 (A) (B) (A) (B) (A) (B) (A)
 Beta  Orbitals:
       Occupied  (A) (A) (B) (A) (B) (A) (B) (A) (B) (A) (B) (A)
                 (B) (A) (B) (A) (B) (B) (A) (A) (B) (A) (A) (B)
                 (B) (A) (B) (A) (A) (B)
       Virtual   (A) (B) (B) (A) (A) (B) (A) (A) (A) (B) (B) (B)
                 (B) (A) (A) (A) (B) (A) (B) (A) (B) (A) (B) (B)
                 (A) (B) (A) (B) (A) (B) (A) (B) (A) (A) (B) (B)
                 (A) (B) (B) (A) (B) (A) (A) (B) (A) (A) (B) (A)
                 (B) (A) (B) (B) (A) (A) (A) (B) (B) (A) (B) (B)
                 (A) (B) (A) (B) (A) (B) (B) (A) (A) (B) (A) (B)
                 (B) (A) (B) (A) (A) (A) (B) (B) (A) (B) (B) (A)
                 (A) (A) (A) (B) (B) (A) (B) (A) (A) (B) (B) (A)
                 (A) (B) (B) (A) (A) (B) (B) (A) (B) (A) (B) (B)
                 (A) (B) (A) (A) (B) (A) (B) (A) (B) (A) (B) (B)
                 (A) (A) (B) (B) (A) (A) (B) (B) (A) (A) (A) (B)
                 (B) (B) (A) (B) (A) (B) (A) (A) (A) (B) (B) (B)
                 (A) (A) (B) (A) (B) (B) (A) (B) (A) (A) (B) (A)
                 (B) (B) (A) (B) (A) (A) (B) (A) (B) (B) (A) (A)
                 (B) (A) (A) (B) (A) (B) (A) (B) (A) (B) (B) (A)
                 (B) (A) (B) (B) (A) (A) (B) (A) (B) (B) (B) (A)
                 (A) (A) (B) (A) (B) (A) (A) (B) (B) (A) (B) (B)
                 (A) (A) (B) (A) (B) (A) (B) (A) (A) (B) (B) (A)
                 (B) (A) (A) (B) (A) (B) (B) (A) (A) (B) (A) (B)
                 (B) (A) (A) (B) (B) (A) (B) (A) (B) (A) (A) (B)
                 (B) (A) (A) (B) (B) (B) (A) (A) (B) (A) (A) (B)
                 (B) (A) (B) (B) (A) (B) (A) (A) (B) (B) (A) (A)
                 (B) (A) (B) (B) (A) (A) (B) (B) (A) (B) (A) (B)
                 (A) (A) (A) (B) (B) (A) (A) (B) (B) (A) (A) (B)
                 (B) (B) (A) (A) (B) (A) (B) (A) (B) (A)
    12 initial guesses have been made.
 Convergence on wavefunction:    0.001000000000000
 Iteration     1 Dimension    12 NMult     0 NNew     12
 CISAX will form    12 AO SS matrices at one time.
 Iteration     2 Dimension    24 NMult    12 NNew     12
 Iteration     3 Dimension    27 NMult    24 NNew      3
 Iteration     4 Dimension    30 NMult    27 NNew      3
 Iteration     5 Dimension    33 NMult    30 NNew      3
 ***********************************************************************
 Stability analysis using <AA,BB:AA,BB> singles matrix:
 ***********************************************************************

 Eigenvectors of the stability matrix:
 
 Eigenvector   1:  4.013-B    Eigenvalue=-0.0223480  <S**2>=3.776
     33A -> 34A        0.96409
     33A -> 40A        0.16403
 SavETr:  write IOETrn=   770 NScale= 10 NData=  16 NLR=1 NState=    1 LETran=      28.
 The wavefunction has an internal instability.
 Keep R1 and R2 ints in memory in symmetry-blocked form, NReq=2184915038.
 The two search directions are symmetric.
 Gradient too large for Newton-Raphson -- use scaled steepest descent instead.
     Accept linear search using points  3 and  4.
 Gradient too large for Newton-Raphson -- use scaled steepest descent instead.
 Gradient too large for Newton-Raphson -- use scaled steepest descent instead.
     Accept linear search using points  1 and  2.
 Gradient too large for Newton-Raphson -- use scaled steepest descent instead.
     Minimum is close to point  2 DX=  3.11D-02 DF= -1.41D-07 DXR=  3.02D-02 DFR=  9.12D-04 which will be used.
 Gradient too large for Newton-Raphson -- use scaled steepest descent instead.
     Accept linear search using points  1 and  2.
     Minimum is close to point  2 DX= -3.20D-02 DF= -1.47D-07 DXR=  3.69D-02 DFR=  1.10D-03 which will be used.
 Gradient too large for Newton-Raphson -- use scaled steepest descent instead.
     Minimum is close to point  2 DX=  1.40D-02 DF= -2.77D-08 DXR=  1.53D-02 DFR=  2.35D-04 which will be used.
 Gradient too large for Newton-Raphson -- use scaled steepest descent instead.
     Minimum is close to point  2 DX=  5.86D-02 DF= -3.91D-07 DXR=  6.12D-02 DFR=  3.75D-03 which will be used.
 Gradient too large for Newton-Raphson -- use scaled steepest descent instead.
 Gradient too large for Newton-Raphson -- use scaled steepest descent instead.
     Accept linear search using points  1 and  2.
 Gradient too large for Newton-Raphson -- use scaled steepest descent instead.
 Gradient too large for Newton-Raphson -- use scaled steepest descent instead.
     Accept linear search using points  1 and  2.
     Minimum is close to point  2 DX= -6.36D-02 DF= -3.06D-07 DXR=  7.61D-02 DFR=  4.76D-03 which will be used.
 Gradient too large for Newton-Raphson -- use scaled steepest descent instead.
     Accept linear search using points  1 and  2.
     Minimum is close to point  2 DX= -1.90D-02 DF= -2.12D-08 DXR=  2.16D-02 DFR=  3.74D-04 which will be used.
 Gradient too large for Newton-Raphson -- use scaled steepest descent instead.
     Minimum is close to point  2 DX=  2.51D-02 DF= -3.69D-08 DXR=  2.71D-02 DFR=  7.35D-04 which will be used.
 Gradient too large for Newton-Raphson -- use scaled steepest descent instead.
     Minimum is close to point  2 DX=  6.57D-02 DF= -2.06D-07 DXR=  6.80D-02 DFR=  4.64D-03 which will be used.
 LinEq1:  Iter=  0 NonCon=     1 RMS=7.26D-05 Max=9.21D-03 NDo=     1
 AX will form     1 AO Fock derivatives at one time.
 LinEq1:  Iter=  1 NonCon=     1 RMS=3.86D-05 Max=1.27D-03 NDo=     1
 LinEq1:  Iter=  2 NonCon=     1 RMS=4.99D-06 Max=4.49D-04 NDo=     1
 LinEq1:  Iter=  3 NonCon=     1 RMS=9.21D-07 Max=5.67D-05 NDo=     1
 LinEq1:  Iter=  4 NonCon=     1 RMS=4.17D-07 Max=3.39D-05 NDo=     1
 LinEq1:  Iter=  5 NonCon=     1 RMS=1.93D-07 Max=1.43D-05 NDo=     1
 LinEq1:  Iter=  6 NonCon=     1 RMS=5.73D-08 Max=3.03D-06 NDo=     1
 LinEq1:  Iter=  7 NonCon=     1 RMS=1.60D-08 Max=6.01D-07 NDo=     1
 LinEq1:  Iter=  8 NonCon=     1 RMS=4.04D-09 Max=1.52D-07 NDo=     1
 LinEq1:  Iter=  9 NonCon=     0 RMS=1.32D-09 Max=3.97D-08 NDo=     1
 Linear equations converged to 1.367D-08 1.367D-07 after     9 iterations.
     Accept linear search using points  1 and  2.
 LinEq1:  Iter=  0 NonCon=     1 RMS=2.97D-05 Max=1.42D-03 NDo=     1
 LinEq1:  Iter=  1 NonCon=     1 RMS=1.99D-05 Max=1.67D-03 NDo=     1
 LinEq1:  Iter=  2 NonCon=     1 RMS=1.17D-05 Max=5.65D-04 NDo=     1
 LinEq1:  Iter=  3 NonCon=     1 RMS=6.34D-06 Max=1.74D-04 NDo=     1
 LinEq1:  Iter=  4 NonCon=     1 RMS=1.93D-06 Max=8.51D-05 NDo=     1
 LinEq1:  Iter=  5 NonCon=     1 RMS=8.44D-07 Max=5.15D-05 NDo=     1
 LinEq1:  Iter=  6 NonCon=     1 RMS=3.22D-07 Max=2.02D-05 NDo=     1
 LinEq1:  Iter=  7 NonCon=     1 RMS=1.10D-07 Max=6.03D-06 NDo=     1
 LinEq1:  Iter=  8 NonCon=     1 RMS=3.88D-08 Max=1.18D-06 NDo=     1
 LinEq1:  Iter=  9 NonCon=     1 RMS=1.18D-08 Max=3.62D-07 NDo=     1
 LinEq1:  Iter= 10 NonCon=     0 RMS=4.11D-09 Max=1.01D-07 NDo=     1
 Linear equations converged to 1.367D-08 1.367D-07 after    10 iterations.
     Accept linear search using points  1 and  2.
 Gradient too large for Newton-Raphson -- use scaled steepest descent instead.
     Minimum is close to point  2 DX=  9.09D-02 DF= -2.44D-07 DXR=  9.17D-02 DFR=  8.48D-03 which will be used.
 LinEq1:  Iter=  0 NonCon=     1 RMS=1.58D-05 Max=7.04D-04 NDo=     1
 LinEq1:  Iter=  1 NonCon=     1 RMS=8.32D-06 Max=3.69D-04 NDo=     1
 LinEq1:  Iter=  2 NonCon=     1 RMS=5.30D-06 Max=3.65D-04 NDo=     1
 LinEq1:  Iter=  3 NonCon=     1 RMS=3.06D-06 Max=1.64D-04 NDo=     1
 LinEq1:  Iter=  4 NonCon=     1 RMS=1.07D-06 Max=6.11D-05 NDo=     1
 LinEq1:  Iter=  5 NonCon=     1 RMS=2.47D-07 Max=1.04D-05 NDo=     1
 LinEq1:  Iter=  6 NonCon=     1 RMS=8.68D-08 Max=2.51D-06 NDo=     1
 LinEq1:  Iter=  7 NonCon=     1 RMS=3.88D-08 Max=2.62D-06 NDo=     1
 LinEq1:  Iter=  8 NonCon=     1 RMS=1.50D-08 Max=1.04D-06 NDo=     1
 LinEq1:  Iter=  9 NonCon=     1 RMS=4.88D-09 Max=2.25D-07 NDo=     1
 LinEq1:  Iter= 10 NonCon=     0 RMS=1.67D-09 Max=4.78D-08 NDo=     1
 Linear equations converged to 1.367D-08 1.367D-07 after    10 iterations.
 LinEq1:  Iter=  0 NonCon=     1 RMS=1.75D-05 Max=6.35D-04 NDo=     1
 LinEq1:  Iter=  1 NonCon=     1 RMS=7.83D-06 Max=2.33D-04 NDo=     1
 LinEq1:  Iter=  2 NonCon=     1 RMS=4.19D-06 Max=2.20D-04 NDo=     1
 LinEq1:  Iter=  3 NonCon=     1 RMS=3.12D-06 Max=2.28D-04 NDo=     1
 LinEq1:  Iter=  4 NonCon=     1 RMS=1.12D-06 Max=6.51D-05 NDo=     1
 LinEq1:  Iter=  5 NonCon=     1 RMS=5.35D-07 Max=2.57D-05 NDo=     1
 LinEq1:  Iter=  6 NonCon=     1 RMS=1.61D-07 Max=4.35D-06 NDo=     1
 LinEq1:  Iter=  7 NonCon=     1 RMS=4.19D-08 Max=2.74D-06 NDo=     1
 LinEq1:  Iter=  8 NonCon=     1 RMS=1.48D-08 Max=9.82D-07 NDo=     1
 LinEq1:  Iter=  9 NonCon=     1 RMS=5.98D-09 Max=3.56D-07 NDo=     1
 LinEq1:  Iter= 10 NonCon=     0 RMS=2.40D-09 Max=8.18D-08 NDo=     1
 Linear equations converged to 1.367D-08 1.367D-07 after    10 iterations.
     Accept linear search using points  1 and  2.
     Minimum is close to point  2 DX= -3.93D-02 DF= -2.40D-08 DXR=  4.10D-02 DFR=  1.64D-03 which will be used.
 LinEq1:  Iter=  0 NonCon=     1 RMS=6.56D-06 Max=2.51D-04 NDo=     1
 LinEq1:  Iter=  1 NonCon=     1 RMS=3.52D-06 Max=2.12D-04 NDo=     1
 LinEq1:  Iter=  2 NonCon=     1 RMS=1.40D-06 Max=9.27D-05 NDo=     1
 LinEq1:  Iter=  3 NonCon=     1 RMS=6.11D-07 Max=3.30D-05 NDo=     1
 LinEq1:  Iter=  4 NonCon=     1 RMS=3.78D-07 Max=9.04D-06 NDo=     1
 LinEq1:  Iter=  5 NonCon=     1 RMS=1.63D-07 Max=7.04D-06 NDo=     1
 LinEq1:  Iter=  6 NonCon=     1 RMS=5.88D-08 Max=3.13D-06 NDo=     1
 LinEq1:  Iter=  7 NonCon=     1 RMS=2.72D-08 Max=1.77D-06 NDo=     1
 LinEq1:  Iter=  8 NonCon=     1 RMS=1.15D-08 Max=6.80D-07 NDo=     1
 LinEq1:  Iter=  9 NonCon=     0 RMS=3.12D-09 Max=7.65D-08 NDo=     1
 Linear equations converged to 1.367D-08 1.367D-07 after     9 iterations.
     Accept linear search using points  1 and  2.
     Minimum is close to point  2 DX= -5.64D-02 DF= -8.49D-09 DXR=  5.98D-02 DFR=  3.59D-03 which will be used.
 LinEq1:  Iter=  0 NonCon=     1 RMS=2.70D-06 Max=6.53D-05 NDo=     1
 LinEq1:  Iter=  1 NonCon=     1 RMS=1.44D-06 Max=1.03D-04 NDo=     1
 LinEq1:  Iter=  2 NonCon=     1 RMS=5.06D-07 Max=3.29D-05 NDo=     1
 LinEq1:  Iter=  3 NonCon=     1 RMS=2.06D-07 Max=1.03D-05 NDo=     1
 LinEq1:  Iter=  4 NonCon=     1 RMS=1.05D-07 Max=4.52D-06 NDo=     1
 LinEq1:  Iter=  5 NonCon=     1 RMS=6.87D-08 Max=1.99D-06 NDo=     1
 LinEq1:  Iter=  6 NonCon=     1 RMS=3.13D-08 Max=8.21D-07 NDo=     1
 LinEq1:  Iter=  7 NonCon=     1 RMS=1.18D-08 Max=7.27D-07 NDo=     1
 LinEq1:  Iter=  8 NonCon=     1 RMS=4.03D-09 Max=3.14D-07 NDo=     1
 LinEq1:  Iter=  9 NonCon=     0 RMS=1.61D-09 Max=9.23D-08 NDo=     1
 Linear equations converged to 1.367D-08 1.367D-07 after     9 iterations.
     Accept linear search using points  1 and  2.
 LinEq1:  Iter=  0 NonCon=     1 RMS=1.63D-06 Max=8.58D-05 NDo=     1
 LinEq1:  Iter=  1 NonCon=     1 RMS=1.00D-06 Max=7.49D-05 NDo=     1
 LinEq1:  Iter=  2 NonCon=     1 RMS=3.53D-07 Max=1.94D-05 NDo=     1
 LinEq1:  Iter=  3 NonCon=     1 RMS=1.24D-07 Max=4.08D-06 NDo=     1
 LinEq1:  Iter=  4 NonCon=     1 RMS=6.60D-08 Max=2.27D-06 NDo=     1
 LinEq1:  Iter=  5 NonCon=     1 RMS=4.68D-08 Max=1.74D-06 NDo=     1
 LinEq1:  Iter=  6 NonCon=     1 RMS=1.90D-08 Max=1.02D-06 NDo=     1
 LinEq1:  Iter=  7 NonCon=     1 RMS=7.75D-09 Max=4.99D-07 NDo=     1
 LinEq1:  Iter=  8 NonCon=     1 RMS=2.89D-09 Max=1.57D-07 NDo=     1
 LinEq1:  Iter=  9 NonCon=     0 RMS=1.14D-09 Max=3.72D-08 NDo=     1
 Linear equations converged to 1.024D-08 1.024D-07 after     9 iterations.
     Accept linear search using points  1 and  2.
 LinEq1:  Iter=  0 NonCon=     1 RMS=7.57D-07 Max=3.03D-05 NDo=     1
 LinEq1:  Iter=  1 NonCon=     1 RMS=3.86D-07 Max=2.67D-05 NDo=     1
 LinEq1:  Iter=  2 NonCon=     1 RMS=1.61D-07 Max=1.12D-05 NDo=     1
 LinEq1:  Iter=  3 NonCon=     1 RMS=6.04D-08 Max=3.37D-06 NDo=     1
 LinEq1:  Iter=  4 NonCon=     1 RMS=2.69D-08 Max=1.10D-06 NDo=     1
 LinEq1:  Iter=  5 NonCon=     1 RMS=1.66D-08 Max=4.10D-07 NDo=     1
 LinEq1:  Iter=  6 NonCon=     1 RMS=7.82D-09 Max=2.49D-07 NDo=     1
 LinEq1:  Iter=  7 NonCon=     1 RMS=3.09D-09 Max=1.51D-07 NDo=     1
 LinEq1:  Iter=  8 NonCon=     1 RMS=9.55D-10 Max=7.17D-08 NDo=     1
 LinEq1:  Iter=  9 NonCon=     0 RMS=4.29D-10 Max=3.52D-08 NDo=     1
 Linear equations converged to 4.712D-09 4.712D-08 after     9 iterations.
     Accept linear search using points  1 and  2.
 LinEq1:  Iter=  0 NonCon=     1 RMS=3.64D-07 Max=2.93D-05 NDo=     1
 LinEq1:  Iter=  1 NonCon=     1 RMS=2.13D-07 Max=1.62D-05 NDo=     1
 LinEq1:  Iter=  2 NonCon=     1 RMS=6.94D-08 Max=2.98D-06 NDo=     1
 LinEq1:  Iter=  3 NonCon=     1 RMS=2.68D-08 Max=7.65D-07 NDo=     1
 LinEq1:  Iter=  4 NonCon=     1 RMS=1.49D-08 Max=3.92D-07 NDo=     1
 LinEq1:  Iter=  5 NonCon=     1 RMS=1.00D-08 Max=3.96D-07 NDo=     1
 LinEq1:  Iter=  6 NonCon=     1 RMS=3.82D-09 Max=2.39D-07 NDo=     1
 LinEq1:  Iter=  7 NonCon=     1 RMS=1.59D-09 Max=1.10D-07 NDo=     1
 LinEq1:  Iter=  8 NonCon=     1 RMS=5.93D-10 Max=3.43D-08 NDo=     1
 LinEq1:  Iter=  9 NonCon=     0 RMS=2.40D-10 Max=8.25D-09 NDo=     1
 Linear equations converged to 2.529D-09 2.529D-08 after     9 iterations.
     Accept linear search using points  1 and  2.
 LinEq1:  Iter=  0 NonCon=     1 RMS=1.55D-07 Max=6.48D-06 NDo=     1
 LinEq1:  Iter=  1 NonCon=     1 RMS=7.63D-08 Max=5.03D-06 NDo=     1
 LinEq1:  Iter=  2 NonCon=     1 RMS=3.24D-08 Max=2.30D-06 NDo=     1
 LinEq1:  Iter=  3 NonCon=     1 RMS=1.24D-08 Max=7.87D-07 NDo=     1
 LinEq1:  Iter=  4 NonCon=     1 RMS=5.12D-09 Max=2.13D-07 NDo=     1
 LinEq1:  Iter=  5 NonCon=     1 RMS=2.93D-09 Max=5.04D-08 NDo=     1
 LinEq1:  Iter=  6 NonCon=     1 RMS=1.46D-09 Max=5.22D-08 NDo=     1
 LinEq1:  Iter=  7 NonCon=     1 RMS=5.24D-10 Max=1.72D-08 NDo=     1
 LinEq1:  Iter=  8 NonCon=     0 RMS=1.40D-10 Max=4.82D-09 NDo=     1
 Linear equations converged to 1.082D-09 1.082D-08 after     8 iterations.
 LinEq1:  Iter=  0 NonCon=     1 RMS=7.74D-08 Max=2.62D-06 NDo=     1
 LinEq1:  Iter=  1 NonCon=     1 RMS=3.21D-08 Max=2.55D-06 NDo=     1
 LinEq1:  Iter=  2 NonCon=     1 RMS=1.54D-08 Max=1.13D-06 NDo=     1
 LinEq1:  Iter=  3 NonCon=     1 RMS=6.93D-09 Max=2.96D-07 NDo=     1
 LinEq1:  Iter=  4 NonCon=     1 RMS=4.40D-09 Max=1.36D-07 NDo=     1
 LinEq1:  Iter=  5 NonCon=     1 RMS=1.68D-09 Max=5.09D-08 NDo=     1
 LinEq1:  Iter=  6 NonCon=     1 RMS=5.11D-10 Max=2.83D-08 NDo=     1
 LinEq1:  Iter=  7 NonCon=     1 RMS=2.01D-10 Max=1.61D-08 NDo=     1
 LinEq1:  Iter=  8 NonCon=     0 RMS=1.00D-10 Max=5.63D-09 NDo=     1
 Linear equations converged to 8.070D-10 8.070D-09 after     8 iterations.
 LinEq1:  Iter=  0 NonCon=     1 RMS=8.31D-09 Max=4.68D-07 NDo=     1
 LinEq1:  Iter=  1 NonCon=     1 RMS=4.70D-09 Max=4.42D-07 NDo=     1
 LinEq1:  Iter=  2 NonCon=     1 RMS=1.92D-09 Max=1.25D-07 NDo=     1
 LinEq1:  Iter=  3 NonCon=     1 RMS=6.22D-10 Max=1.77D-08 NDo=     1
 LinEq1:  Iter=  4 NonCon=     1 RMS=3.52D-10 Max=9.08D-09 NDo=     1
 LinEq1:  Iter=  5 NonCon=     1 RMS=1.80D-10 Max=5.00D-09 NDo=     1
 LinEq1:  Iter=  6 NonCon=     1 RMS=5.50D-11 Max=1.38D-09 NDo=     1
 LinEq1:  Iter=  7 NonCon=     1 RMS=2.13D-11 Max=8.26D-10 NDo=     1
 LinEq1:  Iter=  8 NonCon=     1 RMS=8.53D-12 Max=3.85D-10 NDo=     1
 LinEq1:  Iter=  9 NonCon=     0 RMS=2.11D-12 Max=2.12D-10 NDo=     1
 Linear equations converged to 3.830D-11 3.830D-10 after     9 iterations.
 Density matrix breaks symmetry, PCut= 1.00D-04
 Density matrix has no symmetry -- integrals replicated.
 Density matrix is not symmetric, so final MOs not symmetrized.
 SCF Done:  E(UHF) =  -1934.68172924     a.u. after   28 cycles
            Convg  =    0.1081D-05                   172 Fock formations.
              S**2 =  3.7702                  -V/T =  1.9999
 <Sx>= 0.0000 <Sy>= 0.0000 <Sz>= 1.5000 <S**2>= 3.7702 S= 1.5050
 <L.S>= 0.000000000000E+00
 Annihilation of the first spin contaminant:
 S**2 before annihilation     3.7702,   after     3.7502
 Range of M.O.s used for correlation:     1   328
 NBasis=   328 NAE=    33 NBE=    30 NFC=     0 NFV=     0
 NROrb=    328 NOA=    33 NOB=    30 NVA=   295 NVB=   298

 **** Warning!!: The largest alpha MO coefficient is  0.11728141D+02


 **** Warning!!: The largest beta MO coefficient is  0.11570851D+02

 Keep R1 and R2 ints in memory in symmetry-blocked form, NReq=2183654072.
 Orbital symmetries:
 Alpha Orbitals:
       Occupied  (A) (A) (B) (B) (B) (?A) (?A) (?A) (?A) (?B) (B)
                 (?B) (?B) (?C) (?C) (?C) (?C) (?C) (?C) (?C) (?C)
                 (?C) (?C) (?C) (?C) (?C) (?C) (?C) (?C) (?C) (?C)
                 (?C) (?C)
       Virtual   (?C) (?C) (?C) (?C) (?C) (?C) (?C) (?C) (?C) (?C)
                 (?C) (?C) (?C) (?C) (?C) (?C) (?C) (?C) (?C) (?C)
                 (?C) (?C) (?C) (?C) (?C) (?C) (?C) (?C) (?C) (?C)
                 (?C) (?C) (?C) (?C) (?C) (?C) (?C) (?C) (?C) (?C)
                 (?C) (?C) (?C) (?C) (?C) (?C) (?C) (?C) (?C) (?C)
                 (?C) (?C) (?C) (?C) (?C) (?C) (?C) (?C) (?C) (?C)
                 (?C) (?C) (?C) (?C) (?C) (?C) (?C) (?C) (?C) (?C)
                 (?C) (?C) (?C) (?C) (?C) (?C) (?C) (?C) (?C) (?C)
                 (?C) (?C) (?C) (?C) (?C) (?C) (?C) (?C) (?C) (?C)
                 (?C) (?C) (?C) (?C) (?C) (?C) (?C) (?C) (?C) (?C)
                 (?C) (?C) (?C) (?C) (?C) (?C) (?C) (?C) (?C) (?C)
                 (?C) (?C) (?C) (?C) (?C) (?C) (?C) (?C) (?C) (?C)
                 (?C) (?C) (?C) (?C) (?C) (?C) (?C) (?C) (?C) (?C)
                 (?C) (?C) (?C) (?C) (?C) (?C) (?C) (?C) (?C) (?C)
                 (?C) (?C) (?C) (?C) (?C) (?C) (?C) (?C) (?C) (?C)
                 (?C) (?C) (?C) (?C) (?C) (?C) (?C) (?C) (?C) (?C)
                 (?C) (?C) (?C) (?C) (?C) (?C) (?C) (?C) (?C) (?C)
                 (?C) (?C) (?C) (?C) (?C) (?C) (?C) (?C) (?C) (?C)
                 (?C) (?C) (?C) (?C) (?C) (?C) (?C) (?C) (?C) (?C)
                 (?C) (?C) (?C) (?C) (?C) (?C) (?C) (?C) (?C) (?C)
                 (?C) (?C) (?C) (?C) (?C) (?C) (?C) (?C) (?C) (?C)
                 (?C) (?C) (?C) (?C) (?C) (?C) (?C) (?C) (?C) (?C)
                 (?C) (?C) (?C) (?C) (?C) (?C) (?C) (?C) (?C) (?C)
                 (?C) (?C) (?C) (?C) (?C) (?C) (?C) (?C) (?C) (?C)
                 (?C) (?C) (?C) (?C) (?C) (?C) (?C) (?C) (?C) (?C)
                 (?C) (?C) (?C) (?C) (?C) (?C) (?C) (?C) (?C) (?C)
                 (?C) (?C) (?C) (?C) (?D) (?D) (?D) (?D) (?D) (?D)
                 (B) (A) (?A) (?A) (A) (?A) (?A) (?A) (?A) (?E)
                 (?E) (?E) (?E) (?E) (?E) (?E) (?E) (?E) (?E) (?E)
                 (?E) (?E) (?E) (?E) (?E)
 Beta  Orbitals:
       Occupied  (A) (A) (B) (B) (B) (?A) (?A) (?A) (?A) (?B) (?B)
                 (?B) (?B) (?C) (?C) (?C) (?C) (?C) (?C) (?C) (?C)
                 (?C) (?C) (?C) (?C) (?C) (?C) (?C) (?C) (?C)
       Virtual   (?C) (?C) (?C) (?C) (?C) (?C) (?C) (?C) (?C) (?C)
                 (?C) (?C) (?C) (?C) (?C) (?C) (?C) (?C) (?C) (?C)
                 (?C) (?C) (?C) (?C) (?C) (?C) (?C) (?C) (?C) (?C)
                 (?C) (?C) (?C) (?C) (?C) (?C) (?C) (?C) (?C) (?C)
                 (?C) (?C) (?C) (?C) (?C) (?C) (?C) (?C) (?C) (?C)
                 (?C) (?C) (?C) (?C) (?C) (?C) (?C) (?C) (?C) (?C)
                 (?C) (?C) (?C) (?C) (?C) (?C) (?C) (?C) (?C) (?C)
                 (?C) (?C) (?C) (?C) (?C) (?C) (?C) (?C) (?C) (?C)
                 (?C) (?C) (?C) (?C) (?C) (?C) (?C) (?C) (?C) (?C)
                 (?C) (?C) (?C) (?C) (?C) (?C) (?C) (?C) (?C) (?C)
                 (?C) (?C) (?C) (?C) (?C) (?C) (?C) (?C) (?C) (?C)
                 (?C) (?C) (?C) (?C) (?C) (?C) (?C) (?C) (?C) (?C)
                 (?C) (?C) (?C) (?C) (?C) (?C) (?C) (?C) (?C) (?C)
                 (?C) (?C) (?C) (?C) (?C) (?C) (?C) (?C) (?C) (?C)
                 (?C) (?C) (?C) (?C) (?C) (?C) (?C) (?C) (?C) (?C)
                 (?C) (?C) (?C) (?C) (?C) (?C) (?C) (?C) (?C) (?C)
                 (?C) (?C) (?C) (?C) (?C) (?C) (?C) (?C) (?C) (?C)
                 (?C) (?C) (?C) (?C) (?C) (?C) (?C) (?C) (?C) (?C)
                 (?C) (?C) (?C) (?C) (?C) (?C) (?C) (?C) (?C) (?C)
                 (?C) (?C) (?C) (?C) (?C) (?C) (?C) (?C) (?C) (?C)
                 (?C) (?C) (?C) (?C) (?C) (?C) (?C) (?C) (?C) (?C)
                 (?C) (?C) (?C) (?C) (?C) (?C) (?C) (?C) (?C) (?C)
                 (?C) (?C) (?C) (?C) (?C) (?C) (?C) (?C) (?C) (?C)
                 (?C) (?C) (?C) (?C) (?C) (?C) (?C) (?C) (?C) (?C)
                 (?C) (?C) (?C) (?C) (?C) (?C) (?C) (?C) (?C) (?C)
                 (?C) (?C) (?C) (?C) (?C) (?C) (?C) (?C) (?C) (?C)
                 (?C) (?C) (?C) (?C) (?C) (?C) (?C) (?D) (?D) (?D)
                 (?D) (?D) (?D) (B) (A) (?A) (?A) (A) (?A) (?A)
                 (?A) (?A) (?E) (?E) (?E) (?E) (?E) (?E) (?E) (?E)
                 (?E) (?E) (?E) (?E) (?E) (?E) (?E) (?E)
    12 initial guesses have been made.
 Convergence on wavefunction:    0.001000000000000
 Iteration     1 Dimension    12 NMult     0 NNew     12
 CISAX will form    12 AO SS matrices at one time.
 New state      1 was old state      2
 Iteration     2 Dimension    24 NMult    12 NNew     12
 Iteration     3 Dimension    27 NMult    24 NNew      3
 Iteration     4 Dimension    30 NMult    27 NNew      3
 Iteration     5 Dimension    33 NMult    30 NNew      3
 Iteration     6 Dimension    36 NMult    33 NNew      3
 ***********************************************************************
 Stability analysis using <AA,BB:AA,BB> singles matrix:
 ***********************************************************************

 Eigenvectors of the stability matrix:
 
 Excited state symmetry could not be determined.
 Eigenvector   1:  4.012-?Sym  Eigenvalue= 0.0014066  <S**2>=3.774
     33A -> 35A        0.96399
     33A -> 38A       -0.16621
     33A -> 48A        0.12072
 SavETr:  write IOETrn=   770 NScale= 10 NData=  16 NLR=1 NState=    1 LETran=      28.
 The wavefunction is stable under the perturbations considered.
 The wavefunction is already stable.

 **********************************************************************

            Population analysis using the SCF density.

 **********************************************************************

 Orbital symmetries:
 Alpha Orbitals:
       Occupied  (A) (A) (B) (B) (B) (?A) (?A) (?A) (?A) (?B) (B)
                 (?B) (?B) (?C) (?C) (?C) (?C) (?C) (?C) (?C) (?C)
                 (?C) (?C) (?C) (?C) (?C) (?C) (?C) (?C) (?C) (?C)
                 (?C) (?C)
       Virtual   (?C) (?C) (?C) (?C) (?C) (?C) (?C) (?C) (?C) (?C)
                 (?C) (?C) (?C) (?C) (?C) (?C) (?C) (?C) (?C) (?C)
                 (?C) (?C) (?C) (?C) (?C) (?C) (?C) (?C) (?C) (?C)
                 (?C) (?C) (?C) (?C) (?C) (?C) (?C) (?C) (?C) (?C)
                 (?C) (?C) (?C) (?C) (?C) (?C) (?C) (?C) (?C) (?C)
                 (?C) (?C) (?C) (?C) (?C) (?C) (?C) (?C) (?C) (?C)
                 (?C) (?C) (?C) (?C) (?C) (?C) (?C) (?C) (?C) (?C)
                 (?C) (?C) (?C) (?C) (?C) (?C) (?C) (?C) (?C) (?C)
                 (?C) (?C) (?C) (?C) (?C) (?C) (?C) (?C) (?C) (?C)
                 (?C) (?C) (?C) (?C) (?C) (?C) (?C) (?C) (?C) (?C)
                 (?C) (?C) (?C) (?C) (?C) (?C) (?C) (?C) (?C) (?C)
                 (?C) (?C) (?C) (?C) (?C) (?C) (?C) (?C) (?C) (?C)
                 (?C) (?C) (?C) (?C) (?C) (?C) (?C) (?C) (?C) (?C)
                 (?C) (?C) (?C) (?C) (?C) (?C) (?C) (?C) (?C) (?C)
                 (?C) (?C) (?C) (?C) (?C) (?C) (?C) (?C) (?C) (?C)
                 (?C) (?C) (?C) (?C) (?C) (?C) (?C) (?C) (?C) (?C)
                 (?C) (?C) (?C) (?C) (?C) (?C) (?C) (?C) (?C) (?C)
                 (?C) (?C) (?C) (?C) (?C) (?C) (?C) (?C) (?C) (?C)
                 (?C) (?C) (?C) (?C) (?C) (?C) (?C) (?C) (?C) (?C)
                 (?C) (?C) (?C) (?C) (?C) (?C) (?C) (?C) (?C) (?C)
                 (?C) (?C) (?C) (?C) (?C) (?C) (?C) (?C) (?C) (?C)
                 (?C) (?C) (?C) (?C) (?C) (?C) (?C) (?C) (?C) (?C)
                 (?C) (?C) (?C) (?C) (?C) (?C) (?C) (?C) (?C) (?C)
                 (?C) (?C) (?C) (?C) (?C) (?C) (?C) (?C) (?C) (?C)
                 (?C) (?C) (?C) (?C) (?C) (?C) (?C) (?C) (?C) (?C)
                 (?C) (?C) (?C) (?C) (?C) (?C) (?C) (?C) (?C) (?C)
                 (?C) (?C) (?C) (?C) (?D) (?D) (?D) (?D) (?D) (?D)
                 (B) (A) (?A) (?A) (A) (?A) (?A) (?A) (?A) (?E)
                 (?E) (?E) (?E) (?E) (?E) (?E) (?E) (?E) (?E) (?E)
                 (?E) (?E) (?E) (?E) (?E)
 Beta  Orbitals:
       Occupied  (A) (A) (B) (B) (B) (?A) (?A) (?A) (?A) (?B) (?B)
                 (?B) (?B) (?C) (?C) (?C) (?C) (?C) (?C) (?C) (?C)
                 (?C) (?C) (?C) (?C) (?C) (?C) (?C) (?C) (?C)
       Virtual   (?C) (?C) (?C) (?C) (?C) (?C) (?C) (?C) (?C) (?C)
                 (?C) (?C) (?C) (?C) (?C) (?C) (?C) (?C) (?C) (?C)
                 (?C) (?C) (?C) (?C) (?C) (?C) (?C) (?C) (?C) (?C)
                 (?C) (?C) (?C) (?C) (?C) (?C) (?C) (?C) (?C) (?C)
                 (?C) (?C) (?C) (?C) (?C) (?C) (?C) (?C) (?C) (?C)
                 (?C) (?C) (?C) (?C) (?C) (?C) (?C) (?C) (?C) (?C)
                 (?C) (?C) (?C) (?C) (?C) (?C) (?C) (?C) (?C) (?C)
                 (?C) (?C) (?C) (?C) (?C) (?C) (?C) (?C) (?C) (?C)
                 (?C) (?C) (?C) (?C) (?C) (?C) (?C) (?C) (?C) (?C)
                 (?C) (?C) (?C) (?C) (?C) (?C) (?C) (?C) (?C) (?C)
                 (?C) (?C) (?C) (?C) (?C) (?C) (?C) (?C) (?C) (?C)
                 (?C) (?C) (?C) (?C) (?C) (?C) (?C) (?C) (?C) (?C)
                 (?C) (?C) (?C) (?C) (?C) (?C) (?C) (?C) (?C) (?C)
                 (?C) (?C) (?C) (?C) (?C) (?C) (?C) (?C) (?C) (?C)
                 (?C) (?C) (?C) (?C) (?C) (?C) (?C) (?C) (?C) (?C)
                 (?C) (?C) (?C) (?C) (?C) (?C) (?C) (?C) (?C) (?C)
                 (?C) (?C) (?C) (?C) (?C) (?C) (?C) (?C) (?C) (?C)
                 (?C) (?C) (?C) (?C) (?C) (?C) (?C) (?C) (?C) (?C)
                 (?C) (?C) (?C) (?C) (?C) (?C) (?C) (?C) (?C) (?C)
                 (?C) (?C) (?C) (?C) (?C) (?C) (?C) (?C) (?C) (?C)
                 (?C) (?C) (?C) (?C) (?C) (?C) (?C) (?C) (?C) (?C)
                 (?C) (?C) (?C) (?C) (?C) (?C) (?C) (?C) (?C) (?C)
                 (?C) (?C) (?C) (?C) (?C) (?C) (?C) (?C) (?C) (?C)
                 (?C) (?C) (?C) (?C) (?C) (?C) (?C) (?C) (?C) (?C)
                 (?C) (?C) (?C) (?C) (?C) (?C) (?C) (?C) (?C) (?C)
                 (?C) (?C) (?C) (?C) (?C) (?C) (?C) (?C) (?C) (?C)
                 (?C) (?C) (?C) (?C) (?C) (?C) (?C) (?D) (?D) (?D)
                 (?D) (?D) (?D) (B) (A) (?A) (?A) (A) (?A) (?A)
                 (?A) (?A) (?E) (?E) (?E) (?E) (?E) (?E) (?E) (?E)
                 (?E) (?E) (?E) (?E) (?E) (?E) (?E) (?E)
 Unable to determine electronic state:  an orbital has unidentified symmetry.
 Alpha  occ. eigenvalues -- -353.57592 -44.63254 -39.19714 -39.19685 -39.19664
 Alpha  occ. eigenvalues --  -11.47304 -11.47147 -11.40791 -11.39279  -5.91450
 Alpha  occ. eigenvalues --   -4.12728  -4.11471  -4.11391  -1.25376  -1.23758
 Alpha  occ. eigenvalues --   -1.09923  -1.06878  -1.06439  -1.05624  -1.05600
 Alpha  occ. eigenvalues --   -1.04719  -1.01851  -0.81326  -0.80564  -0.80229
 Alpha  occ. eigenvalues --   -0.79018  -0.72790  -0.71864  -0.68966  -0.67843
 Alpha  occ. eigenvalues --   -0.67659  -0.65479  -0.33441
 Alpha virt. eigenvalues --   -0.11885  -0.10874  -0.01718   0.01321   0.02256
 Alpha virt. eigenvalues --    0.03477   0.04084   0.04720   0.05175   0.06434
 Alpha virt. eigenvalues --    0.07910   0.10032   0.10955   0.12043   0.14082
 Alpha virt. eigenvalues --    0.15650   0.16683   0.20114   0.22075   0.22841
 Alpha virt. eigenvalues --    0.23254   0.23398   0.24508   0.24860   0.28456
 Alpha virt. eigenvalues --    0.29740   0.36347   0.39577   0.40504   0.41358
 Alpha virt. eigenvalues --    0.41860   0.42226   0.43516   0.43791   0.44974
 Alpha virt. eigenvalues --    0.47067   0.47908   0.48870   0.49927   0.50572
 Alpha virt. eigenvalues --    0.51486   0.52786   0.53387   0.54992   0.56361
 Alpha virt. eigenvalues --    0.56731   0.61518   0.62390   0.68598   0.70802
 Alpha virt. eigenvalues --    0.72433   0.75969   0.77218   0.79054   0.80877
 Alpha virt. eigenvalues --    0.82951   0.85727   0.86067   0.87038   0.91703
 Alpha virt. eigenvalues --    0.93363   0.95516   0.97008   0.99379   1.00143
 Alpha virt. eigenvalues --    1.04788   1.05158   1.06963   1.08275   1.09657
 Alpha virt. eigenvalues --    1.10036   1.10571   1.11437   1.12357   1.14751
 Alpha virt. eigenvalues --    1.17457   1.18109   1.18398   1.19059   1.20049
 Alpha virt. eigenvalues --    1.21443   1.24551   1.26039   1.29105   1.29615
 Alpha virt. eigenvalues --    1.31990   1.32951   1.34300   1.34556   1.38428
 Alpha virt. eigenvalues --    1.38595   1.40336   1.41935   1.44099   1.45972
 Alpha virt. eigenvalues --    1.46293   1.52423   1.53952   1.55428   1.58034
 Alpha virt. eigenvalues --    1.62084   1.64212   1.71739   1.73334   2.29882
 Alpha virt. eigenvalues --    2.32353   2.33314   2.35920   2.40672   2.45423
 Alpha virt. eigenvalues --    2.46559   2.47165   2.49246   2.51519   2.54599
 Alpha virt. eigenvalues --    2.55516   2.57708   2.58289   2.65134   2.66092
 Alpha virt. eigenvalues --    2.67712   2.70785   2.71399   2.72354   2.77733
 Alpha virt. eigenvalues --    2.78502   2.81535   2.84275   2.85180   2.88429
 Alpha virt. eigenvalues --    2.89301   2.90450   2.91323   2.92065   2.94057
 Alpha virt. eigenvalues --    2.95140   2.95738   2.99146   3.00247   3.01975
 Alpha virt. eigenvalues --    3.05518   3.08451   3.09639   3.10483   3.11610
 Alpha virt. eigenvalues --    3.11692   3.13268   3.15265   3.18006   3.20240
 Alpha virt. eigenvalues --    3.20959   3.22156   3.23237   3.24191   3.25430
 Alpha virt. eigenvalues --    3.26593   3.29764   3.30143   3.32829   3.35264
 Alpha virt. eigenvalues --    3.36637   3.38672   3.40881   3.42973   3.46699
 Alpha virt. eigenvalues --    3.47757   3.48765   3.55360   3.56339   3.57798
 Alpha virt. eigenvalues --    3.58598   3.59211   3.60541   3.61529   3.63425
 Alpha virt. eigenvalues --    3.65843   3.67699   3.68462   3.77797   3.78248
 Alpha virt. eigenvalues --    3.79994   3.80053   3.86584   3.89541   3.90584
 Alpha virt. eigenvalues --    3.91004   3.92142   3.93633   3.94688   3.96104
 Alpha virt. eigenvalues --    3.98093   4.00555   4.01811   4.02015   4.02240
 Alpha virt. eigenvalues --    4.08182   4.11067   4.12397   4.13488   4.13699
 Alpha virt. eigenvalues --    4.15618   4.15788   4.19419   4.20738   4.21070
 Alpha virt. eigenvalues --    4.21312   4.23602   4.24212   4.24340   4.26312
 Alpha virt. eigenvalues --    4.28157   4.28640   4.32883   4.37186   4.37531
 Alpha virt. eigenvalues --    4.39661   4.40075   4.40615   4.42998   4.46670
 Alpha virt. eigenvalues --    4.47788   4.48157   4.49843   4.55859   4.57141
 Alpha virt. eigenvalues --    4.62365   4.72493   4.73693   4.74559   4.81049
 Alpha virt. eigenvalues --    4.81789   4.82089   4.87432   4.94484   4.96486
 Alpha virt. eigenvalues --    4.96638   4.98028   4.98414   5.01904   5.02726
[...]
 Alpha virt. eigenvalues --    0.23254   0.23398   0.24508   0.24860   0.28456
 Alpha virt. eigenvalues --    0.29740   0.36347   0.39577   0.40504   0.41358
 Alpha virt. eigenvalues --    0.41860   0.42226   0.43516   0.43791   0.44974
 Alpha virt. eigenvalues --    0.47067   0.47908   0.48870   0.49927   0.50572
 Alpha virt. eigenvalues --    0.51486   0.52786   0.53387   0.54992   0.56361
 Alpha virt. eigenvalues --    0.56731   0.61518   0.62390   0.68598   0.70802
 Alpha virt. eigenvalues --    0.72433   0.75969   0.77218   0.79054   0.80877
 Alpha virt. eigenvalues --    0.82951   0.85727   0.86067   0.87038   0.91703
 Alpha virt. eigenvalues --    0.93363   0.95516   0.97008   0.99379   1.00143
 Alpha virt. eigenvalues --    1.04788   1.05158   1.06963   1.08275   1.09657
 Alpha virt. eigenvalues --    1.10036   1.10571   1.11437   1.12357   1.14751
 Alpha virt. eigenvalues --    1.17457   1.18109   1.18398   1.19059   1.20049
 Alpha virt. eigenvalues --    1.21443   1.24551   1.26039   1.29105   1.29615
 Alpha virt. eigenvalues --    1.31990   1.32951   1.34300   1.34556   1.38428
 Alpha virt. eigenvalues --    1.38595   1.40336   1.41935   1.44099   1.45972
 Alpha virt. eigenvalues --    1.46293   1.52423   1.53952   1.55428   1.58034
 Alpha virt. eigenvalues --    1.62084   1.64212   1.71739   1.73334   2.29882
 Alpha virt. eigenvalues --    2.32353   2.33314   2.35920   2.40672   2.45423
 Alpha virt. eigenvalues --    2.46559   2.47165   2.49246   2.51519   2.54599
 Alpha virt. eigenvalues --    2.55516   2.57708   2.58289   2.65134   2.66092
 Alpha virt. eigenvalues --    2.67712   2.70785   2.71399   2.72354   2.77733
 Alpha virt. eigenvalues --    2.78502   2.81535   2.84275   2.85180   2.88429
 Alpha virt. eigenvalues --    2.89301   2.90450   2.91323   2.92065   2.94057
 Alpha virt. eigenvalues --    2.95140   2.95738   2.99146   3.00247   3.01975
 Alpha virt. eigenvalues --    3.05518   3.08451   3.09639   3.10483   3.11610
 Alpha virt. eigenvalues --    3.11692   3.13268   3.15265   3.18006   3.20240
 Alpha virt. eigenvalues --    3.20959   3.22156   3.23237   3.24191   3.25430
 Alpha virt. eigenvalues --    3.26593   3.29764   3.30143   3.32829   3.35264
 Alpha virt. eigenvalues --    3.36637   3.38672   3.40881   3.42973   3.46699
 Alpha virt. eigenvalues --    3.47757   3.48765   3.55360   3.56339   3.57798
 Alpha virt. eigenvalues --    3.58598   3.59211   3.60541   3.61529   3.63425
 Alpha virt. eigenvalues --    3.65843   3.67699   3.68462   3.77797   3.78248
 Alpha virt. eigenvalues --    3.79994   3.80053   3.86584   3.89541   3.90584
 Alpha virt. eigenvalues --    3.91004   3.92142   3.93633   3.94688   3.96104
 Alpha virt. eigenvalues --    3.98093   4.00555   4.01811   4.02015   4.02240
 Alpha virt. eigenvalues --    4.08182   4.11067   4.12397   4.13488   4.13699
 Alpha virt. eigenvalues --    4.15618   4.15788   4.19419   4.20738   4.21070
 Alpha virt. eigenvalues --    4.21312   4.23602   4.24212   4.24340   4.26312
 Alpha virt. eigenvalues --    4.28157   4.28640   4.32883   4.37186   4.37531
 Alpha virt. eigenvalues --    4.39661   4.40075   4.40615   4.42998   4.46670
 Alpha virt. eigenvalues --    4.47788   4.48157   4.49843   4.55859   4.57141
 Alpha virt. eigenvalues --    4.62365   4.72493   4.73693   4.74559   4.81049
 Alpha virt. eigenvalues --    4.81789   4.82089   4.87432   4.94484   4.96486
 Alpha virt. eigenvalues --    4.96638   4.98028   4.98414   5.01904   5.02726
 Alpha virt. eigenvalues --    5.03466   5.04494   5.10329   5.11025   5.11267
 Alpha virt. eigenvalues --    5.22187   5.24462   5.32159   5.33334   5.34762
 Alpha virt. eigenvalues --    5.37814   5.38664   5.44542   5.45821   5.50840
 Alpha virt. eigenvalues --    5.50969   5.51423   5.52588   5.53948   5.55908
 Alpha virt. eigenvalues --    5.58289   5.59778   5.63126   5.64140   6.07559
 Alpha virt. eigenvalues --    6.09257   6.10401   6.11372   6.12162   6.12737
 Alpha virt. eigenvalues --   10.65780  10.68245  10.92665  10.96879  11.40642
 Alpha virt. eigenvalues --   11.97969  12.07747  13.59010  13.62223  15.97469
 Alpha virt. eigenvalues --   15.97485  15.98892  15.99292  16.04681  16.05467
 Alpha virt. eigenvalues --   16.18478  16.65615  16.65626  16.65703  16.65730
 Alpha virt. eigenvalues --   16.65943  16.65964  16.66028  16.66407  16.67133
  Beta  occ. eigenvalues -- -353.57191 -44.63040 -39.19683 -39.19491 -39.19474
  Beta  occ. eigenvalues --  -11.45536 -11.45326 -11.40688 -11.39271  -5.90545
  Beta  occ. eigenvalues --   -4.11735  -4.11238  -4.11176  -1.19706  -1.18604
  Beta  occ. eigenvalues --   -1.06819  -1.06483  -1.05818  -1.05682  -1.05506
  Beta  occ. eigenvalues --   -1.00162  -0.98278  -0.79811  -0.79076  -0.73406
  Beta  occ. eigenvalues --   -0.72034  -0.70443  -0.69556  -0.68171  -0.66977
  Beta virt. eigenvalues --   -0.25187  -0.17252  -0.07786  -0.07232  -0.03662
  Beta virt. eigenvalues --   -0.00785   0.03870   0.04412   0.05184   0.05639
  Beta virt. eigenvalues --    0.06588   0.07255   0.08678   0.10593   0.11375
  Beta virt. eigenvalues --    0.11938   0.15052   0.15749   0.17406   0.19213
  Beta virt. eigenvalues --    0.21995   0.23118   0.23724   0.24185   0.25160
  Beta virt. eigenvalues --    0.25952   0.27413   0.30729   0.34065   0.39397
  Beta virt. eigenvalues --    0.40248   0.42871   0.43283   0.44293   0.44991
  Beta virt. eigenvalues --    0.45738   0.46686   0.47135   0.48482   0.50032
  Beta virt. eigenvalues --    0.50602   0.50921   0.51311   0.53439   0.54341
  Beta virt. eigenvalues --    0.55196   0.57965   0.59161   0.59867   0.63315
  Beta virt. eigenvalues --    0.63916   0.70103   0.72734   0.74472   0.77639
  Beta virt. eigenvalues --    0.78331   0.79569   0.82269   0.85541   0.88525
  Beta virt. eigenvalues --    0.89149   0.89803   0.92571   0.94327   0.97341
  Beta virt. eigenvalues --    0.99146   0.99886   1.00832   1.05711   1.06580
  Beta virt. eigenvalues --    1.08131   1.09008   1.10766   1.11049   1.11776
  Beta virt. eigenvalues --    1.12839   1.13858   1.17171   1.18411   1.18831
  Beta virt. eigenvalues --    1.19106   1.19432   1.20722   1.22996   1.25846
  Beta virt. eigenvalues --    1.28179   1.31301   1.32695   1.33037   1.34113
  Beta virt. eigenvalues --    1.35144   1.36215   1.39520   1.39806   1.40962
  Beta virt. eigenvalues --    1.42438   1.45574   1.47062   1.47459   1.53681
  Beta virt. eigenvalues --    1.54805   1.57234   1.59030   1.62791   1.65111
  Beta virt. eigenvalues --    1.72940   1.74682   2.30378   2.32882   2.34722
  Beta virt. eigenvalues --    2.37450   2.41774   2.46342   2.47559   2.48128
  Beta virt. eigenvalues --    2.49974   2.52352   2.55914   2.58471   2.60435
  Beta virt. eigenvalues --    2.61370   2.66042   2.67124   2.69121   2.72168
  Beta virt. eigenvalues --    2.73895   2.74035   2.79797   2.80074   2.83181
  Beta virt. eigenvalues --    2.87048   2.87501   2.89879   2.90928   2.91083
  Beta virt. eigenvalues --    2.91955   2.92959   2.94792   2.96222   2.96778
  Beta virt. eigenvalues --    3.00005   3.01294   3.02957   3.06824   3.09030
  Beta virt. eigenvalues --    3.10232   3.11890   3.12203   3.12330   3.14399
  Beta virt. eigenvalues --    3.16641   3.19757   3.20884   3.21396   3.22516
  Beta virt. eigenvalues --    3.23930   3.24877   3.27103   3.29424   3.31788
  Beta virt. eigenvalues --    3.32316   3.35387   3.37110   3.37807   3.40179
  Beta virt. eigenvalues --    3.42384   3.44099   3.47009   3.48441   3.49116
  Beta virt. eigenvalues --    3.55787   3.56600   3.58322   3.58858   3.59702
  Beta virt. eigenvalues --    3.60990   3.62360   3.64121   3.66471   3.68559
  Beta virt. eigenvalues --    3.69294   3.78576   3.79005   3.80522   3.81259
  Beta virt. eigenvalues --    3.87622   3.89980   3.91006   3.91683   3.92501
  Beta virt. eigenvalues --    3.94239   3.95244   3.97212   3.98698   4.00981
  Beta virt. eigenvalues --    4.02458   4.02736   4.02765   4.08826   4.11951
  Beta virt. eigenvalues --    4.12900   4.14095   4.14352   4.16341   4.16466
  Beta virt. eigenvalues --    4.20463   4.21426   4.21791   4.21966   4.24252
  Beta virt. eigenvalues --    4.24671   4.24914   4.26564   4.28493   4.28938
  Beta virt. eigenvalues --    4.33695   4.37571   4.37880   4.39949   4.40327
  Beta virt. eigenvalues --    4.40822   4.43588   4.47282   4.48183   4.48556
  Beta virt. eigenvalues --    4.50127   4.56692   4.58005   4.63030   4.73157
  Beta virt. eigenvalues --    4.74460   4.75871   4.81685   4.82378   4.82708
  Beta virt. eigenvalues --    4.88605   4.95379   4.96822   4.96970   4.98351
  Beta virt. eigenvalues --    4.98840   5.02477   5.03116   5.03866   5.05124
  Beta virt. eigenvalues --    5.10860   5.11755   5.12059   5.22774   5.25321
  Beta virt. eigenvalues --    5.32779   5.33931   5.35540   5.38472   5.39353
  Beta virt. eigenvalues --    5.44933   5.46150   5.51124   5.51544   5.52046
  Beta virt. eigenvalues --    5.52833   5.54310   5.56315   5.58667   5.60145
  Beta virt. eigenvalues --    5.63804   5.64819   6.08251   6.09536   6.10813
  Beta virt. eigenvalues --    6.11656   6.12552   6.13297  10.65779  10.68250
  Beta virt. eigenvalues --   10.92779  10.97042  11.41250  11.99203  12.08994
  Beta virt. eigenvalues --   13.59157  13.62341  15.97122  15.97138  15.98877
  Beta virt. eigenvalues --   15.99276  16.05124  16.05921  16.19125  16.65519
  Beta virt. eigenvalues --   16.65527  16.65578  16.65583  16.65773  16.65810
  Beta virt. eigenvalues --   16.65976  16.66382  16.67153
          Condensed to atoms (all electrons):
               1          2          3          4          5          6
     1  Zn  29.693465  -0.063190  -0.062858  -0.010091   0.026323   0.015130
     2  C   -0.063190   5.254145   0.355744   0.410232   0.383962  -0.019834
     3  C   -0.062858   0.355744   4.797692  -0.024414  -0.042101   0.393785
     4  H   -0.010091   0.410232  -0.024414   0.486403  -0.035156  -0.004585
     5  H    0.026323   0.383962  -0.042101  -0.035156   0.503489  -0.000719
     6  H    0.015130  -0.019834   0.393785  -0.004585  -0.000719   0.507299
     7  H   -0.015815  -0.021478   0.418823  -0.002923   0.003275  -0.026476
     8  H   -0.024611  -0.020080   0.420137   0.004622  -0.006305  -0.029186
     9  C    0.018897   0.002800   0.000522   0.000132  -0.001272  -0.000045
    10  C    0.012457  -0.001708  -0.000044  -0.000075   0.000202   0.000002
    11  H   -0.030222   0.000936   0.000020   0.000030  -0.000048  -0.000003
    12  H   -0.038978   0.001175   0.000025   0.000045  -0.000110  -0.000004
    13  H    0.000657   0.000044   0.000000   0.000002  -0.000006   0.000000
    14  H    0.000869  -0.000105  -0.000004   0.000004   0.000016   0.000000
    15  H    0.000729  -0.000118  -0.000003  -0.000011   0.000056   0.000000
               7          8          9         10         11         12
     1  Zn  -0.015815  -0.024611   0.018897   0.012457  -0.030222  -0.038978
     2  C   -0.021478  -0.020080   0.002800  -0.001708   0.000936   0.001175
     3  C    0.418823   0.420137   0.000522  -0.000044   0.000020   0.000025
     4  H   -0.002923   0.004622   0.000132  -0.000075   0.000030   0.000045
     5  H    0.003275  -0.006305  -0.001272   0.000202  -0.000048  -0.000110
     6  H   -0.026476  -0.029186  -0.000045   0.000002  -0.000003  -0.000004
     7  H    0.505786  -0.021105   0.000144  -0.000013   0.000033   0.000031
     8  H   -0.021105   0.537522   0.000251  -0.000027   0.000018   0.000106
     9  C    0.000144   0.000251   5.168438   0.289996   0.426122   0.430842
    10  C   -0.000013  -0.000027   0.289996   4.874845  -0.047141  -0.049444
    11  H    0.000033   0.000018   0.426122  -0.047141   0.483811  -0.019011
    12  H    0.000031   0.000106   0.430842  -0.049444  -0.019011   0.485508
    13  H    0.000000   0.000001  -0.014359   0.385358  -0.001051  -0.000491
    14  H    0.000000   0.000000  -0.031768   0.414819  -0.004659   0.004305
    15  H    0.000000  -0.000005  -0.032586   0.415103   0.004410  -0.004848
              13         14         15
     1  Zn   0.000657   0.000869   0.000729
     2  C    0.000044  -0.000105  -0.000118
     3  C    0.000000  -0.000004  -0.000003
     4  H    0.000002   0.000004  -0.000011
     5  H   -0.000006   0.000016   0.000056
     6  H    0.000000   0.000000   0.000000
     7  H    0.000000   0.000000   0.000000
     8  H    0.000001   0.000000  -0.000005
     9  C   -0.014359  -0.031768  -0.032586
    10  C    0.385358   0.414819   0.415103
    11  H   -0.001051  -0.004659   0.004410
    12  H   -0.000491   0.004305  -0.004848
    13  H    0.502120  -0.022206  -0.022364
    14  H   -0.022206   0.542979  -0.033500
    15  H   -0.022364  -0.033500   0.544428
          Atomic-Atomic Spin Densities.
               1          2          3          4          5          6
     1  Zn   1.721139  -0.098928  -0.060256  -0.015057   0.018189   0.012493
     2  C   -0.098928   0.810822  -0.000564   0.019452  -0.011759  -0.014974
     3  C   -0.060256  -0.000564   0.003931   0.003481  -0.006592   0.007209
     4  H   -0.015057   0.019452   0.003481  -0.013514   0.002234  -0.002410
     5  H    0.018189  -0.011759  -0.006592   0.002234   0.028279   0.000557
     6  H    0.012493  -0.014974   0.007209  -0.002410   0.000557   0.076080
     7  H   -0.015566   0.000485   0.009251   0.000749  -0.000439  -0.004187
     8  H   -0.025070   0.004391   0.011154   0.000502  -0.001668  -0.005314
     9  C   -0.016049   0.003489   0.000600   0.000168  -0.001195  -0.000051
    10  C    0.006036  -0.001669  -0.000026  -0.000054   0.000247   0.000002
    11  H   -0.035138   0.000987   0.000031   0.000051  -0.000067  -0.000003
    12  H   -0.043781   0.001280   0.000054   0.000031  -0.000114  -0.000006
    13  H   -0.000532   0.000040   0.000001   0.000001  -0.000008   0.000000
    14  H   -0.001411  -0.000100  -0.000001  -0.000005   0.000017   0.000000
    15  H   -0.001517  -0.000116  -0.000002  -0.000003   0.000027   0.000000
               7          8          9         10         11         12
     1  Zn  -0.015566  -0.025070  -0.016049   0.006036  -0.035138  -0.043781
     2  C    0.000485   0.004391   0.003489  -0.001669   0.000987   0.001280
     3  C    0.009251   0.011154   0.000600  -0.000026   0.000031   0.000054
     4  H    0.000749   0.000502   0.000168  -0.000054   0.000051   0.000031
     5  H   -0.000439  -0.001668  -0.001195   0.000247  -0.000067  -0.000114
     6  H   -0.004187  -0.005314  -0.000051   0.000002  -0.000003  -0.000006
     7  H    0.007356   0.000996   0.000138  -0.000009   0.000023   0.000030
     8  H    0.000996   0.009923   0.000258  -0.000024   0.000023   0.000086
     9  C    0.000138   0.000258   0.757594  -0.059616   0.027392   0.031240
    10  C   -0.000009  -0.000024  -0.059616   0.050909  -0.006483  -0.009109
    11  H    0.000023   0.000023   0.027392  -0.006483  -0.005025   0.008108
    12  H    0.000030   0.000086   0.031240  -0.009109   0.008108  -0.000756
    13  H    0.000000   0.000001  -0.011950   0.005049   0.000503   0.001086
    14  H    0.000000  -0.000001  -0.002252   0.005619   0.000216  -0.000301
    15  H    0.000000  -0.000002  -0.002473   0.006111  -0.000262   0.000000
              13         14         15
     1  Zn  -0.000532  -0.001411  -0.001517
     2  C    0.000040  -0.000100  -0.000116
     3  C    0.000001  -0.000001  -0.000002
     4  H    0.000001  -0.000005  -0.000003
     5  H   -0.000008   0.000017   0.000027
     6  H    0.000000   0.000000   0.000000
     7  H    0.000000   0.000000   0.000000
     8  H    0.000001  -0.000001  -0.000002
     9  C   -0.011950  -0.002252  -0.002473
    10  C    0.005049   0.005619   0.006111
    11  H    0.000503   0.000216  -0.000262
    12  H    0.001086  -0.000301   0.000000
    13  H    0.094472  -0.003889  -0.004201
    14  H   -0.003889   0.002996   0.001338
    15  H   -0.004201   0.001338   0.003354
 Mulliken charges and spin densities:
               1          2
     1  Zn   0.477238   1.444551
     2  C   -0.282526   0.712835
     3  C   -0.257326  -0.031728
     4  H    0.175787  -0.004374
     5  H    0.168392   0.027708
     6  H    0.164635   0.069397
     7  H    0.159719  -0.001172
     8  H    0.138662  -0.004747
     9  C   -0.258114   0.727292
    10  C   -0.294330  -0.003019
    11  H    0.186755  -0.009644
    12  H    0.190851  -0.012152
    13  H    0.172297   0.080574
    14  H    0.129250   0.002226
    15  H    0.128708   0.002253
 Sum of Mulliken charges =   1.00000   3.00000
 Mulliken charges and spin densities with hydrogens summed into heavy atoms:
               1          2
     1  Zn   0.477238   1.444551
     2  C    0.061654   0.736169
     3  C    0.205691   0.031750
     9  C    0.119492   0.705496
    10  C    0.135925   0.082033
 Electronic spatial extent (au):  <R**2>=            937.5132
 Charge=              1.0000 electrons
 Dipole moment (field-independent basis, Debye):
    X=             -3.0044    Y=             -0.1058    Z=             -0.5441  Tot=              3.0551
 Quadrupole moment (field-independent basis, Debye-Ang):
   XX=            -40.1168   YY=            -13.5077   ZZ=            -38.2865
   XY=              5.1847   XZ=             -1.4195   YZ=              0.0915
 Traceless Quadrupole moment (field-independent basis, Debye-Ang):
   XX=             -9.4798   YY=             17.1293   ZZ=             -7.6495
   XY=              5.1847   XZ=             -1.4195   YZ=              0.0915
 Octapole moment (field-independent basis, Debye-Ang**2):
  XXX=            -12.1653  YYY=             -3.7246  ZZZ=              0.4014  XYY=              0.6140
  XXY=              1.8627  XXZ=             -1.6862  XZZ=             -4.6923  YZZ=             -0.3595
  YYZ=              0.0801  XYZ=             -1.5067
 Hexadecapole moment (field-independent basis, Debye-Ang**3):
 XXXX=           -259.6334 YYYY=           -695.5983 ZZZZ=            -79.2830 XXXY=           -130.7001
 XXXZ=             -4.7895 YYYX=            -94.1533 YYYZ=              1.2433 ZZZX=             -4.8106
 ZZZY=             -0.2121 XXYY=           -162.3651 XXZZ=            -54.7350 YYZZ=           -160.6099
 XXYZ=              0.0356 YYXZ=             -1.2568 ZZXY=            -50.7756
 N-N= 3.207392817687D+02 E-N=-5.253094617696D+03  KE= 1.934870018908D+03
 1\1\GINC-GAMBA\SP\UCCSD(T)-FC\Gen\C4H10Zn1(1+,4)\IRIKURA\26-May-2017\0
 \\# CCSD(T,maxcyc=100)/GEN gfinput geom=check scf=xqc guess=check\\BEB
  step 7: high-spin CCSD(T) for cation of ZnEt2\\1,4\Zn,0,0.,0.,0.09205
 9\C,0,0.,1.933945,0.090127\C,0,1.360973,2.577345,-0.233751\H,0,-0.3465
 94,2.294125,1.069841\H,0,-0.75069,2.294418,-0.628225\H,0,1.311324,3.67
 5407,-0.22301\H,0,2.134924,2.28887,0.488877\H,0,1.727459,2.287037,-1.2
 26622\C,0,0.,-1.933945,0.090127\C,0,-1.360973,-2.577345,-0.233751\H,0,
 0.346594,-2.294125,1.069841\H,0,0.75069,-2.294418,-0.628225\H,0,-1.311
 324,-3.675407,-0.22301\H,0,-2.134924,-2.28887,0.488877\H,0,-1.727459,-
 2.287037,-1.226622\\Version=ES64L-G09RevD.01\HF=-1934.6817292\MP2=-193
 5.8503266\MP3=-1935.8397868\MP4D=-1935.8744085\MP4DQ=-1935.8596295\PUH
 F=-1934.685069\PMP2-0=-1935.8523289\PMP3-0=-1935.841028\MP4SDQ=-1935.8
 725521\CCSD=-1935.8669858\CCSD(T)=-1935.9090998\S2=3.770201\S2-1=3.753
 91\S2A=3.750197\RMSD=1.520e-09\PG=C02 [C2(Zn1),X(C4H10)]\\@


 ADAM SMITH SAID, "THE REAL PRICE OF ANYTHING IS THE TOIL AND TROUBLE
 OF ACQUIRING IT."  BUT IN ALL UNDERTAKINGS WITH NATURE WE SHOULD FIRST
 READ CAREFULLY THE SMALL PRINT IN THE CONTRACT. THIS MIGHT DISCLOSE
 THAT THE REAL PRICE IS TO BE PAID BY THOSE WHO INHERIT THE DEPLETION
 AND DESPOILATION THAT FOLLOWS.
                               -- E. R. HARRISON IN "COSMOLOGY" (1980)
 Job cpu time:       4 days  3 hours 44 minutes 56.2 seconds.
 File lengths (MBytes):  RWF=  35429 Int=      0 D2E=      0 Chk=     17 Scr=      1
 Normal termination of Gaussian 09 at Fri May 26 12:12:24 2017.
