 Entering Gaussian System, Link 0=g09
 AtFile(1): dzp_dkh.gbs
            -Rb     0
            S   8   1.00
             1859845.62249653            0.0017544
             399767.33236293             0.0029902
             129981.60190099             0.0072388
              43888.81234515             0.0160614
              16948.64772502             0.0348190
               6745.99144379             0.0886842
               2522.1394260              0.2484257
                945.94756233             0.6000260
            S   2   1.00
                369.80598607            -0.5459730
                149.61856848            -0.4540269
            S   2   1.00
                 23.0840127              0.7932343
                 10.43332922             0.2067656
            S   2   1.00
                  4.07341931             0.7554109
                  1.70482127             0.2445890
            S   2   1.00
                  0.61211073             0.5354421
                  0.2303685              0.4645578
            S   1   1.00
                 48.97818738             1.0000000
            S   1   1.00
                  0.03343568             1.0000000
            S   1   1.00
                  0.01645421             1.0000000
            P   7   1.00
              10099.59691782             0.0009313
               2546.23067176             0.0041422
                925.06517275             0.0143568
                397.88271556             0.0490951
                165.84753682             0.1612123
                 70.35232805             0.3560386
                 30.97285152             0.4142233
            P   2   1.00
                  6.05296461            -0.5336350
                  2.64070479            -0.4663649
            P   3   1.00
                  0.94994393             0.2645714
                  0.42776265             0.4670510
                  0.17378916             0.2683774
            P   1   1.00
                 13.76306510             1.0000000
            P   1   1.00
                  0.0279673              1.0000000
            P   1   1.00
                  0.0116646              1.0000000
            D   5   1.00
                131.46467706             0.0161821
                 38.1573394              0.0977771
                 13.5180840              0.2777358
                  4.98610435             0.3934092
                  1.74825724             0.2148956
            D   1   1.00
                  0.3776200              1.0000000
            ****
            -Sr     0
            S   8   1.00
             2202166.80600496            0.0017168
             448780.72606811             0.0033932
             140032.81276699             0.0071864
              50340.79398131             0.0153061
              19098.16420792             0.0367973
               7332.10944148             0.0907276
               2758.82083157             0.2474101
               1042.56515337             0.5974621
            S   2   1.00
                407.84843708            -0.5329759
                164.08625052            -0.4670240
            S   2   1.00
                 25.69930424            -0.7734371
                 10.89346673            -0.2265628
            S   2   1.00
                  4.74641549            -0.6993818
                  1.8619092             -0.3006181
            S   2   1.00
                  1.13394619             0.0000146
                  0.26412427             0.9999853
            S   1   1.00
                 54.65664999             1.0000000
            S   1   1.00
                  0.54067548             1.0000000
            S   1   1.00
                  0.03752852             1.0000000
            P   7   1.00
              11898.71582922             0.0008765
               2945.67627303             0.0037081
               1071.35493445             0.0135627
                437.31547128             0.0494034
                181.31852092             0.1578142
                 77.31494654             0.3534537
                 34.33125646             0.4211811
            P   2   1.00
                  6.78187489            -0.5166010
                  2.99708547            -0.4833989
            P   3   1.00
                  1.16524126             0.2449824
                  0.50869254             0.5303145
                  0.20199715             0.2247030
            P   1   1.00
                 15.52810758             1.0000000
            P   1   1.00
                  0.0211686              1.0000000
            P   1   1.00
                  0.0446713              1.0000000
            D   5   1.00
                142.00731665             0.0161916
                 41.21237723             0.0982468
                 14.6674962              0.2794286
                  5.47304102             0.3913618
                  1.95812282             0.2147710
            D   1   1.00
                  0.3689100              1.0000000
            ****
            -Y     0
            S   8   1.00
             2522141.32102006            0.0016990
             449156.29990432             0.0036724
             151720.1764528              0.0066311
              51855.44354044             0.0167936
              18689.66232941             0.0410010
               6875.55030786             0.1012493
               2648.45220711             0.2522764
               1049.9807370              0.5766767
            S   2   1.00
                422.47853745            -0.5348801
                172.31836708            -0.4651198
            S   2   1.00
                 28.30120953             0.7509238
                 12.66764116             0.2490761
            S   2   1.00
                  5.05894842             0.6863196
                  2.20390257             0.3136803
            S   2   1.00
                  0.72735771             0.6399224
                  0.30401193             0.3600775
            S   1   1.00
                 60.56530325             1.0000000
            S   1   1.00
                  0.01355997             1.0000000
            S   1   1.00
                  0.04783584             1.0000000
            P   7   1.00
              11876.25484875             0.0009397
               3268.55095104             0.0033491
               1184.41460471             0.0136442
                463.14383928             0.0517347
                191.23738154             0.1583925
                 82.85996128             0.3508255
                 37.20448645             0.4211141
            P   2   1.00
                  7.6564011             -0.5178717
                  3.40344219            -0.4821282
            P   3   1.00
                  1.2829311              0.2898036
                  0.54825392             0.5360604
                  0.21437241             0.1741359
            P   1   1.00
                 17.15817260             1.0000000
            P   1   1.00
                  0.0178200              1.0000000
            P   1   1.00
                  0.4114200              1.0000000
            D   6   1.00
                251.01056821             0.0062628
                 74.41352333             0.0434411
                 27.67867091             0.1557311
                 11.29136346             0.3101388
                  4.69433459             0.3367227
                  1.90670194             0.1477033
            D   1   1.00
                  0.54823392             1.0000000
            D   1   1.00
                  0.15142201             1.0000000
            F   1   1.00
                  0.1850700              1.0000000
            ****
            -Zr     0
            S   8   1.00
             2781833.7947053             0.0018358
             521679.34119767             0.0030487
             232681.77811491             0.0052634
              84513.10458904             0.0114081
              29766.90252877             0.0342103
              10124.32159146             0.0881896
               3460.3699189              0.2505825
               1252.98274981             0.6054613
            S   2   1.00
                481.43559062             0.5217763
                193.90606984             0.4782236
            S   2   1.00
                 34.55236991             0.6552832
                 15.72702912             0.3447167
            S   2   1.00
                  6.01921411            -0.5657201
                  2.73304983            -0.4342798
            S   2   1.00
                  0.88207095             0.5300357
                  0.3825738              0.4699642
            S   1   1.00
                 69.95003434             1.0000000
            S   1   1.00
                  0.13288936             1.0000000
            S   1   1.00
                  0.03858854             1.0000000
            P   7   1.00
              17433.18339499             0.0006543
               4092.13852623             0.0029935
               1287.90645575             0.0139507
                470.78808171             0.0547189
                188.77750638             0.1703368
                 80.0975033              0.3625743
                 35.70749649             0.3947713
            P   2   1.00
                  7.47181964            -0.5719392
                  3.45589878            -0.4280607
            P   3   1.00
                  1.43859577             0.3548300
                  0.62829833             0.4761975
                  0.24642987             0.1689723
            P   1   1.00
                 16.30509695             1.0000000
            P   1   1.00
                  1.55834023             1.0000000
            P   1   1.00
                  0.0870395              1.0000000
            D   6   1.00
                478.61550846             0.0024038
                116.66667146             0.0253328
                 40.39157075             0.1133527
                 15.90768908             0.2802138
                  6.44422978             0.3719735
                  2.56789898             0.2067232
            D   1   1.00
                  0.72924748             1.0000000
            D   1   1.00
                  0.20333759             1.0000000
            F   1   1.00
                  0.3338870              1.0000000
            ****
            -Nb     0
            S   8   1.00
             2647176.52961261            0.0017714
             457294.91677157             0.0037645
             163476.25654884             0.0066399
              53454.99965722             0.0177494
              19717.46414062             0.0386958
               7472.76290862             0.0984775
               2777.02236973             0.2589181
               1071.12539495             0.5739830
            S   2   1.00
                433.30069504            -0.5580094
                181.27990015            -0.4419905
            S   2   1.00
                 31.19877739            -0.7674576
                 14.07550304            -0.2325423
            S   2   1.00
                  5.26274186             0.8038372
                  2.03680408             0.1961627
            S   2   1.00
                  0.9266687             -0.6783846
                  0.35374866            -0.3216153
            S   1   1.00
                 68.14488671             1.0000000
            S   1   1.00
                  0.02058958             1.0000000
            S   1   1.00
                  0.06620541             1.0000000
            P   7   1.00
              11862.75549267             0.0011451
               3473.05312761             0.0032117
               1446.43343522             0.0111805
                570.72778707             0.0469726
                226.76583688             0.1541934
                 95.82006725             0.3511934
                 42.43191005             0.4321028
            P   2   1.00
                  8.55451234            -0.5480472
                  3.85495624            -0.4519527
            P   3   1.00
                  1.50345997             0.3643442
                  0.67659991             0.4817009
                  0.27911404             0.1539548
            P   1   1.00
                 19.33951570             1.0000000
            P   1   1.00
                  0.5918400              1.0000000
            P   1   1.00
                  0.1775085              1.0000000
            D   6   1.00
                230.52753252             0.0095800
                 68.52379287             0.0628844
                 25.17510472             0.2091281
                  9.99418518             0.3626031
                  4.00263031             0.2977437
                  1.3961519              0.0580604
            D   1   1.00
                  0.47770553             1.0000000
            D   1   1.00
                  0.14110582             1.0000000
            F   1   1.00
                  0.3993900              1.0000000
            ****
            -Mo     0
            S   8   1.00
             2026740.93270436            0.0024008
             385350.13660691             0.0043811
             153625.66721216             0.0062593
              59074.20718888             0.0184487
              18926.56514348             0.0507998
               7049.14637847             0.1048640
               2906.9102769              0.2472079
               1178.86891419             0.5656380
            S   2   1.00
                474.86543884            -0.5482821
                193.86208674            -0.4517178
            S   2   1.00
                 30.71565223             0.8216425
                 13.28375914             0.1783574
            S   2   1.00
                  5.3497234             -0.8603516
                  1.94467514            -0.1396483
            S   2   1.00
                  0.97320128             0.7109546
                  0.3219083              0.2890453
            S   1   1.00
                 67.20988264             1.0000000
            S   1   1.00
                  0.11839548             1.0000000
            S   1   1.00
                  0.05367322             1.0000000
            P   7   1.00
              10863.79422813             0.0013285
               3502.46398906             0.0031797
               1407.06428281             0.0134849
                537.92230924             0.0539473
                218.13351373             0.1644623
                 94.27836494             0.3546650
                 42.46633549             0.4089322
            P   2   1.00
                  8.99486403            -0.5170763
                  4.14037062            -0.4829236
            P   3   1.00
                  1.68330345             0.3422137
                  0.73126273             0.5114253
                  0.29053886             0.1463609
            P   1   1.00
                 19.68084827             1.0000000
            P   1   1.00
                  0.1304384              1.0000000
            P   1   1.00
                  0.0436769              1.0000000
            D   6   1.00
                260.3968219              0.0086671
                 77.45152306             0.0576921
                 28.75103788             0.1953048
                 11.59423933             0.3539902
                  4.72142252             0.3141435
                  1.73212087             0.0702021
            D   1   1.00
                  0.60240161             1.0000000
            D   1   1.00
                  0.17860241             1.0000000
            F   1   1.00
                  0.5145300              1.0000000
            ****
            -Tc     0
            S   8   1.00
             3139140.58329154            0.0019346
             471413.15022019             0.0052595
             134107.3150476              0.0098745
              47768.66748258             0.0210094
              19077.1843479              0.0430761
               8079.99070544             0.0965012
               3181.02170447             0.2556110
               1254.46032689             0.5667332
            S   2   1.00
                506.76289354            -0.5419916
                208.46449746            -0.4580083
            S   2   1.00
                 34.50365584             0.7801589
                 15.3968488              0.2198410
            S   2   1.00
                  6.03229864             0.8085228
                  2.55364434             0.1914771
            S   2   1.00
                  1.00908096            -0.7756395
                  0.40046708            -0.2243604
            S   1   1.00
                 75.61155803             1.0000000
            S   1   1.00
                  0.11504476             1.0000000
            S   1   1.00
                  0.04395116             1.0000000
            P   7   1.00
               9979.24250068             0.0016820
               3311.96217816             0.0039631
               1350.82336528             0.0153185
                567.93484283             0.0514872
                245.71245663             0.1528630
                108.61018931             0.3472278
                 49.71906877             0.4274581
            P   2   1.00
                 10.41529855            -0.4830531
                  4.73642591            -0.5169468
            P   3   1.00
                  1.9444123              0.3047696
                  0.86834586             0.5325783
                  0.34281339             0.1626520
            P   1   1.00
                 23.51988606             1.0000000
            P   1   1.00
                  0.0425767              1.0000000
            P   1   1.00
                  0.1389033              1.0000000
            D   6   1.00
                286.55790423             0.0081522
                 85.35792135             0.0550990
                 31.66763425             0.1906510
                 12.80454523             0.3536648
                  5.23836944             0.3202675
                  1.94981292             0.0721651
            D   1   1.00
                  0.68241228             1.0000000
            D   1   1.00
                  0.20266464             1.0000000
            F   1   1.00
                  0.6071995              1.0000000
            ****
            -Ru     0
            S   8   1.00
             2570066.23316876            0.0021136
             577076.69794713             0.0037457
             181502.48207906             0.0080890
              66068.82154153             0.0165050
              24801.43317493             0.0407513
               9041.30244477             0.1018866
               3363.11647309             0.2557961
               1300.20521635             0.5711123
            S   2   1.00
                520.50863144            -0.5504563
                215.1329861             -0.4495436
            S   2   1.00
                 36.04117033            -0.7726665
                 15.95457817            -0.2273334
            S   2   1.00
                  6.71765862             0.7573772
                  3.03211453             0.2426227
            S   2   1.00
                  1.10914852            -0.7907320
                  0.4399249             -0.2092679
            S   1   1.00
                 77.65227294             1.0000000
            S   1   1.00
                  0.06945088             1.0000000
            S   1   1.00
                  0.02011606             1.0000000
            P   7   1.00
              16364.03439489             0.0010703
               4506.83503512             0.0033712
               1674.42461191             0.0130391
                652.77539066             0.0489417
                271.51580069             0.1478216
                118.46396693             0.3420914
                 53.34197249             0.4436643
            P   2   1.00
                 10.79237836            -0.5102952
                  4.89847969            -0.4897047
            P   3   1.00
                  2.0120531              0.3577561
                  0.89971331             0.4998272
                  0.36562072             0.1424165
            P   1   1.00
                 24.55158335             1.0000000
            P   1   1.00
                  0.1873176              1.0000000
            P   1   1.00
                  0.0367516              1.0000000
            D   6   1.00
                307.23219126             0.0082013
                 89.82535922             0.0570139
                 33.07620495             0.1985436
                 13.26497302             0.3647570
                  5.40651589             0.3126190
                  1.95045933             0.0588649
            D   1   1.00
                  0.69272513             1.0000000
            D   1   1.00
                  0.20646625             1.0000000
            F   1   1.00
                  0.5232228              1.0000000
            ****
            -Rh     0
            S   8   1.00
             2884494.5274652            -0.0022329
             612988.02186496            -0.0056569
             191321.96339931            -0.0071719
              62425.39919639            -0.0221926
              22335.36741682            -0.0495202
               9195.2220216             -0.0894055
               3692.45539385            -0.2591562
               1443.18320881            -0.5646636
            S   2   1.00
                574.40819194            -0.5397578
                235.33590577            -0.4602421
            S   2   1.00
                 40.85742283            -0.7233276
                 18.95264617            -0.2766723
            S   2   1.00
                  7.09096883             0.7687304
                  3.01038734             0.2312695
            S   2   1.00
                  1.25103809            -0.7719302
                  0.47580076            -0.2280697
            S   1   1.00
                 86.25195573             1.0000000
            S   1   1.00
                  0.02335264             1.0000000
            S   1   1.00
                  0.07560319             1.0000000
            P   7   1.00
              14901.7117588              0.0011537
               5157.10885949             0.0027598
               1785.50730789             0.0139875
                657.45709113             0.0533211
                267.73468475             0.1598697
                117.41239574             0.3461978
                 54.07969456             0.4227100
            P   2   1.00
                 11.19976479            -0.5248859
                  5.14312963            -0.4751140
            P   3   1.00
                  2.09026925             0.3990650
                  0.93509606             0.4703566
                  0.38381066             0.1305783
            P   1   1.00
                 25.37897575             1.0000000
            P   1   1.00
                  0.1825727              1.0000000
            P   1   1.00
                  0.0457754              1.0000000
            D   6   1.00
                330.54861639             0.0079830
                 97.17152848             0.0556683
                 35.76747261             0.1972486
                 14.34976536             0.3668264
                  5.88321427             0.3142460
                  2.16097749             0.0580274
            D   1   1.00
                  0.77506824             1.0000000
            D   1   1.00
                  0.23653019             1.0000000
            F   1   1.00
                  0.7482000              1.0000000
            ****
            -Pd     0
            S   9   1.00
             11437261.29738128          -0.0011795
             2265314.71775539           -0.0039777
             674634.30277928            -0.0044321
             289534.11730807            -0.0091522
             109592.16018243            -0.0218628
              50658.86455336            -0.0333051
              18996.48708033            -0.1059677
               6957.42123918            -0.2488671
               2708.31520512            -0.5712555
            S   2   1.00
               1099.10890027            -0.4272020
                470.51477198            -0.5727979
            S   2   1.00
                 75.90415599            -0.3738512
                 36.51735265            -0.6261487
            S   2   1.00
                  7.30877612            -0.7976606
                  3.25187455            -0.2023393
            S   1   1.00
                208.59758271             1.0000000
            S   1   1.00
                 16.59126357             1.0000000
            S   1   1.00
                  1.46460230             1.0000000
            S   1   1.00
                  0.57977508             1.0000000
            P   7   1.00
              20874.80782355             0.0009956
               4901.35138242             0.0038540
               1777.98399672             0.0133832
                695.74581149             0.0512603
                283.78879457             0.1582230
                122.48409202             0.3515915
                 55.58056926             0.4206921
            P   2   1.00
                 11.98636537            -0.5222993
                  5.54235795            -0.4777006
            P   3   1.00
                  2.0872662              0.5064646
                  0.89761184             0.4569490
                  0.33379647             0.0365863
            P   1   1.00
                 26.03274009             1.0000000
            P   1   1.00
                  0.4168982              1.0000000
            P   1   1.00
                  0.0864491              1.0000000
            D   6   1.00
                479.03528606             0.0045982
                130.51042484             0.0397377
                 45.84800195             0.1652112
                 17.97001702             0.3544164
                  7.22102435             0.3564224
                  2.64184313             0.0796140
            D   1   1.00
                  0.92641479             1.0000000
            D   1   1.00
                  0.25806916             1.0000000
            F   1   1.00
                  0.8520000              1.0000000
            ****
            -Ag     0
            S   8   1.00
             3713780.93731371            0.0024938
             693919.36932121             0.0043126
             325428.41692311             0.0055181
             108507.37924419             0.0186926
              35632.30853931             0.0440244
              12903.57882805             0.0994490
               4831.40008671             0.2481730
               1845.61768816             0.5773361
            S   2   1.00
                718.00322237             0.5087023
                286.99682342             0.4912976
            S   2   1.00
                 50.29630614            -0.6818216
                 22.61657703            -0.3181783
            S   2   1.00
                  8.20344403            -0.7379494
                  3.65648408            -0.2620505
            S   2   1.00
                  1.37917434             0.8020944
                  0.52675923             0.1979055
            S   1   1.00
                114.05973484             1.0000000
            S   1   1.00
                  0.08007237             1.0000000
            S   1   1.00
                  0.02788400             1.0000000
            P   7   1.00
              28319.42450268             0.0008777
               6655.02505642             0.0032150
               2437.30247442             0.0097624
               1009.97998425             0.0366993
                405.00663336             0.1259151
                170.15095307             0.3307812
                 75.26381551             0.4927490
            P   2   1.00
                 14.61985357            -0.4437416
                  6.53591414            -0.5562583
            P   3   1.00
                  2.56909194             0.3592165
                  1.11621078             0.5111821
                  0.43332979             0.1296013
            P   1   1.00
                 34.26698056             1.0000000
            P   1   1.00
                  0.1449000              1.0000000
            P   1   1.00
                  0.0366000              1.0000000
            D   6   1.00
                604.1875346              0.0034887
                153.74364114             0.0341209
                 53.05008732             0.1505845
                 20.66218462             0.3455685
                  8.30213463             0.3713745
                  3.17178204             0.0948627
            D   1   1.00
                  1.14701380             1.0000000
            D   1   1.00
                  0.33944361             1.0000000
            F   1   1.00
                  1.0994630              1.0000000
            ****
            -Cd     0
            S   8   1.00
             3155085.06499701            0.0025660
             660772.13404554             0.0041540
             238881.52916262             0.0089810
              72735.34368029             0.0239368
              25634.5200725              0.0485230
              10770.27869179             0.0932764
               4342.40753979             0.2492463
               1666.21187517             0.5693160
            S   2   1.00
                658.00203774            -0.5386375
                267.56312988            -0.4613624
            S   2   1.00
                 43.01025151             0.8154785
                 18.37219288             0.1845214
            S   2   1.00
                  7.96434968            -0.7578008
                  3.25845033            -0.2421991
            S   2   1.00
                  1.5035075              0.0000001
                  0.46229911             0.9999998
            S   1   1.00
                 93.94102375             1.0000000
            S   1   1.00
                  0.35164902             1.0000000
            S   1   1.00
                  0.06345509             1.0000000
            P   7   1.00
              21673.06753263             0.0011747
               5265.80274347             0.0043973
               1866.01888067             0.0152564
                780.79150255             0.0480212
                342.85791348             0.1414969
                151.41508768             0.3397870
                 68.90567073             0.4498663
            P   2   1.00
                 14.22473306            -0.4878582
                  6.63269547            -0.5121417
            P   3   1.00
                  2.89148336             0.3356507
                  1.32796742             0.5026472
                  0.54612318             0.1617020
            P   1   1.00
                 32.29473415             1.0000000
            P   1   1.00
                  0.0502000              1.0000000
            P   1   1.00
                  0.3350000              1.0000000
            D   6   1.00
                391.08708949             0.0080383
                116.5605861              0.0550752
                 43.34170961             0.1965345
                 17.62374763             0.3687594
                  7.39389667             0.3161038
                  2.79634646             0.0554886
            D   1   1.00
                  1.05431969             1.0000000
            D   1   1.00
                  0.34517249             1.0000000
            F   1   1.00
                  1.1178000              1.0000000
            ****
            -In     0
            S   8   1.00
             3911387.99396017            0.0019106
             616287.73481971             0.0051095
             151103.30117264             0.0122150
              47141.85872853             0.0264067
              17529.40640418             0.0549934
               7260.52500212             0.1118848
               3025.71991729             0.2650582
               1247.90516632             0.5224215
            S   2   1.00
                525.78514244            -0.6182111
                227.70274356            -0.3817888
            S   2   1.00
                 37.42356574             0.8595418
                 15.40856655             0.1404581
            S   2   1.00
                  7.80235647            -0.9674241
                  3.66651376            -0.0325758
            S   2   1.00
                  1.58107676             0.8300646
                  0.68346506             0.1699353
            S   1   1.00
                 81.15347986             1.0000000
            S   1   1.00
                  0.16693398             1.0000000
            S   1   1.00
                  0.06074596             1.0000000
            P   7   1.00
              15057.43809137             0.0015978
               3736.13730897             0.0063150
               1305.52437933             0.0236237
                530.19961571             0.0749274
                227.22714039             0.2056037
                100.29531263             0.3698071
                 45.55071966             0.3181250
            P   2   1.00
                  9.30536768            -0.7398548
                  4.34502689            -0.2601451
            P   3   1.00
                  2.03496374             0.7377750
                  0.89930195             0.2561995
                  0.04072711             0.0060254
            P   1   1.00
                 19.89039293             1.0000000
            P   1   1.00
                  0.34908476             1.0000000
            P   1   1.00
                  0.11984145             1.0000000
            D   6   1.00
                404.44497713             0.0084245
                120.40150512             0.0575138
                 44.84756662             0.2023909
                 18.32709234             0.3727961
                  7.7691023              0.3081591
                  3.02700765             0.0507152
            D   1   1.00
                  1.17153703             1.0000000
            D   1   1.00
                  0.40449780             1.0000000
            F   1   1.00
                  1.2673800              1.0000000
            ****
            -Sn     0
            S   8   1.00
             4238589.38529473            0.0021979
             673793.42495089             0.0057620
             170097.0764782              0.0131238
              55609.70461290             0.0265849
              21415.49971415             0.0544851
               8977.6637589              0.1097070
               3782.07819166             0.2553987
               1562.92528277             0.5327401
            S   2   1.00
                648.12338474            -0.5627676
                272.54080122            -0.4372323
            S   2   1.00
                 46.76879883            -0.7367795
                 22.69311379            -0.2632204
            S   2   1.00
                  9.71239974            -0.7370823
                  4.80098504            -0.2629176
            S   2   1.00
                  1.87390748             0.7304300
                  0.82932636             0.2695699
            S   1   1.00
                 94.87261510             1.0000000
            S   1   1.00
                  0.20078915             1.0000000
            S   1   1.00
                  0.07538279             1.0000000
            P   7   1.00
              15934.47942881             0.0016271
               3949.03996243             0.0063469
               1382.8987827              0.0233327
                566.21188582             0.0727218
                244.15478655             0.2003071
                107.89717825             0.3679727
                 48.96252198             0.3276913
            P   2   1.00
                 10.07938092             0.7303119
                  4.75501791             0.2696880
            P   3   1.00
                  2.25355772             0.6898991
                  1.01299742             0.3017230
                  0.15319025            -0.0083777
            P   1   1.00
                 21.42982885             1.0000000
            P   1   1.00
                  0.39772444             1.0000000
            P   1   1.00
                  0.05502644             1.0000000
            D   6   1.00
                439.54036499             0.0079683
                130.83523828             0.0549273
                 48.7864467              0.1963897
                 20.01140691             0.3698314
                  8.53464202             0.3154885
                  3.38957135             0.0553945
            D   1   1.00
                  1.34061058             1.0000000
            D   1   1.00
                  0.47738533             1.0000000
            F   1   1.00
                  1.4803000              1.0000000
            ****
            -Sb     0
            S   8   1.00
             4576912.39461047           -0.0022886
             722274.85585881            -0.0057420
             180461.44189899            -0.0139556
              58510.85396354            -0.0268979
              22407.98050811            -0.0569897
               9397.19468637            -0.1094959
               3988.08004008            -0.2571553
               1658.51236772            -0.5274747
            S   2   1.00
                689.53631958            -0.5571336
                290.33252531            -0.4428663
            S   2   1.00
                 51.76115244            -0.6955033
                 25.43660363            -0.3044966
            S   2   1.00
                 10.68711246            -0.6762834
                  5.35097749            -0.3237165
            S   2   1.00
                  2.08203748             0.6759606
                  0.94593102             0.3240393
            S   1   1.00
                103.03896014             1.0000000
            S   1   1.00
                  0.23237717             1.0000000
            S   1   1.00
                  0.08908140             1.0000000
            P   6   1.00
              17526.99848246             0.0025362
               4338.38561674             0.0093262
               1521.20209475             0.0363130
                625.08384057             0.1016745
                269.92029289             0.3195598
                119.21923344             0.5305899
            P   2   1.00
                 24.01714113            -0.1833073
                 11.38682967            -0.8166926
            P   4   1.00
                  5.48204731            -0.0651330
                  2.57971786             0.5272597
                  1.16867338             0.3910977
                  0.4633580              0.0165093
            P   1   1.00
                 54.10285183             1.0000000
            P   1   1.00
                  0.18646747             1.0000000
            P   1   1.00
                  0.06892036             1.0000000
            D   6   1.00
                482.52442053             0.0073123
                144.20982987             0.0505971
                 54.02687331             0.1845474
                 22.27295388             0.3619695
                  9.5347044              0.3297735
                  3.84640851             0.0657999
            D   1   1.00
                  1.54677239             1.0000000
            D   1   1.00
                  0.56155038             1.0000000
            F   1   1.00
                  1.7468010              1.0000000
            ****
            -Te     0
            S   8   1.00
             4650601.62944046           -0.0023907
             732410.37796376            -0.0062175
             183587.78336399            -0.0141861
              60119.30754396            -0.0284166
              23190.68448638            -0.0568049
               9737.01632783            -0.1140856
               4166.07002735            -0.2523592
               1748.29117439            -0.5255389
            S   2   1.00
                729.63641733            -0.5504144
                307.46500803            -0.4495855
            S   2   1.00
                 55.97521174            -0.6766914
                 27.54602392            -0.3233085
            S   2   1.00
                 11.33873168            -0.6699929
                  5.70208693            -0.3300070
            S   2   1.00
                  2.22186025             0.6845782
                  1.0266713              0.3154217
            S   1   1.00
                110.73724148             1.0000000
            S   1   1.00
                  0.27246346             1.0000000
            S   1   1.00
                  0.10489073             1.0000000
            P   7   1.00
               8289.94492999             0.0035423
               4521.61764712             0.0029522
               1585.75140286             0.0242275
                654.35415772             0.0661249
                283.7621631              0.1913404
                125.50601977             0.3619133
                 56.92437628             0.3498991
            P   2   1.00
                 11.96243933            -0.6989548
                  5.74608357            -0.3010451
            P   3   1.00
                  2.71079969             0.6346880
                  1.23555585             0.3005980
                  0.47667416             0.0647139
            P   1   1.00
                 25.23465437             1.0000000
            P   1   1.00
                  0.19817871             1.0000000
            P   1   1.00
                  0.07356233             1.0000000
            D   6   1.00
                519.00405018             0.0070604
                155.37108353             0.0489591
                 58.31953191             0.1807279
                 24.1103958              0.3607853
                 10.36130878             0.3344266
                  4.22870886             0.0680406
            D   1   1.00
                  1.72518271             1.0000000
            D   1   1.00
                  0.63881217             1.0000000
            F   1   1.00
                  1.9721100              1.0000000
            ****
            -I     0
            S   8   1.00
             5464702.08060097            0.0022010
             849942.52168504             0.0059336
             207458.86762606             0.0137360
              64929.86485391             0.0289591
              23909.80880875             0.0599806
               9850.71275593             0.1154691
               4222.34623514             0.2554331
               1781.76403452             0.5182871
            S   2   1.00
                749.21394356            -0.5544582
                318.75246448            -0.4455417
            S   2   1.00
                 59.88344918            -0.6579130
                 29.50227605            -0.3420869
            S   2   1.00
                 12.24593624            -0.6349870
                  6.20345391            -0.3650129
            S   2   1.00
                  2.43764323             0.6518901
                  1.14985168             0.3481098
            S   1   1.00
                118.02205930             1.0000000
            S   1   1.00
                  0.30638210             1.0000000
            S   1   1.00
                  0.11926836             1.0000000
            P   7   1.00
              20182.20166081             0.0016094
               4999.21100888             0.0059094
               1768.53795847             0.0204900
                734.7752808              0.0629189
                317.5116541              0.1798365
                139.60118455             0.3605064
                 63.12833732             0.3687292
            P   2   1.00
                 13.45203045            -0.6684080
                  6.52579989            -0.3315919
            P   3   1.00
                  3.02467901             0.6059378
                  1.38040546             0.3385645
                  0.52669045             0.0554975
            P   1   1.00
                 28.34086632             1.0000000
            P   1   1.00
                  0.22217820             1.0000000
            P   1   1.00
                  0.08328104             1.0000000
            D   6   1.00
                565.9883795              0.0066068
                168.69681731             0.0466142
                 63.14306896             0.1755992
                 26.1030685              0.3583238
                 11.24530421             0.3404563
                  4.6390732              0.0723995
            D   1   1.00
                  1.91572411             1.0000000
            D   1   1.00
                  0.72024616             1.0000000
            F   1   1.00
                  2.20029999             1.0000000
            ****
            -Xe     0
            S   8   1.00
             5300603.6455303             0.0024061
             830291.96023362             0.0064271
             204622.59537664             0.0145828
              65467.65670800             0.0298412
              24638.35965707             0.0610773
              10166.6217443              0.1186330
               4378.44248334             0.2557231
               1872.44267126             0.5113090
            S   2   1.00
                791.67226166            -0.5495208
                335.97247692            -0.4504791
            S   2   1.00
                 62.71741001            -0.6606470
                 30.8580286             -0.3393529
            S   2   1.00
                 12.5844189             -0.6679592
                  6.37253749            -0.3320407
            S   2   1.00
                  2.52103894             0.6928658
                  1.19813268             0.3071341
            S   1   1.00
                123.77865014             1.0000000
            S   1   1.00
                  0.35467594             1.0000000
            S   1   1.00
                  0.13770054             1.0000000
            P   7   1.00
              19789.21536178             0.0017567
               4884.3186152              0.0065162
               1716.21072091             0.0227179
                717.46791924             0.0670012
                315.32662293             0.1848753
                140.29749882             0.3603001
                 63.76419492             0.3568321
            P   2   1.00
                 13.53639555            -0.6944550
                  6.53430209            -0.3055449
            P   3   1.00
                  3.09312426             0.6533198
                  1.44315313             0.2884794
                  0.57854424             0.0582007
            P   1   1.00
                 28.46523338             1.0000000
            P   1   1.00
                  0.24632510             1.0000000
            P   1   1.00
                  0.09406752             1.0000000
            D   6   1.00
                562.16186208             0.0074019
                166.96897515             0.0517497
                 62.58995927             0.1884608
                 26.06667973             0.3652916
                 11.40476322             0.3241532
                  4.80680923             0.0629424
            D   1   1.00
                  2.02133549             1.0000000
            D   1   1.00
                  0.77586645             1.0000000
            F   1   1.00
                  2.37949999             1.0000000
            ****
            -Cs     0
            S   8   1.00
             6358555.97315775            0.0017020
             975197.47595161             0.0046002
             231373.26611387             0.0111092
              69185.23544252             0.0245680
              23659.17763478             0.0552355
               8710.01454098             0.1242032
               3367.61386358             0.2747904
               1364.80248248             0.5037910
            S   2   1.00
                581.63387583             0.6523428
                258.80694654             0.3476571
            S   2   1.00
                 95.88801448            -0.4929633
                 43.54566052            -0.5070366
            S   2   1.00
                 16.32206039             0.3105445
                  8.45550848             0.6894554
            S   2   1.00
                  3.07402909             0.4562464
                  1.53791203             0.5437535
            S   2   1.00
                  0.3979442             -0.6124747
                  0.17766636            -0.3875252
            S   1   1.00
                  0.02479428             1.0000000
            S   1   1.00
                  0.01195514             1.0000000
            P   7   1.00
              21037.84374441             0.0016697
               5071.37994339             0.0063689
               1668.89333058             0.0263237
                635.10758740             0.0842258
                263.08966412             0.2342341
                115.50808456             0.3518730
                 52.87866472             0.2953046
            P   2   1.00
                 23.22594073             0.4495580
                 10.93541108             0.5504419
            P   2   1.00
                  4.7796866              0.2409055
                  2.26180403             0.7590944
            P   2   1.00
                  1.01555189             0.2205990
                  0.3907088              0.7794009
            P   1   1.00
                  0.14486649             1.0000000
            P   1   1.00
                  0.01678762             1.0000000
            D   4   1.00
                440.68504626             0.0161866
                131.17304432             0.1059899
                 48.69780966             0.3347614
                 19.65225281             0.5430620
            D   3   1.00
                  8.26146128             0.0873832
                  3.16805389             0.5295794
                  1.1460849              0.3830373
            D   1   1.00
                  7.68863433             1.0000000
            ****
            -Ba     0
            S   10   1.00
             4105408.7752721             0.0013349
             640608.8306394              0.0034929
             156917.3696354              0.0081539
              49428.64291976             0.0172559
              17854.91576732             0.0376031
               6754.77672865             0.0854695
               2617.27317214             0.1868967
               1055.27787274             0.3083933
                446.61790989             0.3105730
                194.65852105             0.0408262
            S   2   1.00
                  0.47187296            -0.7333998
                  0.22162859            -0.2666001
            S   1   1.00
                 40.75591794             1.0000000
            S   1   1.00
                 15.76230201             1.0000000
            S   1   1.00
                  3.16400079             1.0000000
            S   1   1.00
                  1.58517431             1.0000000
            S   1   1.00
                  0.04155245             1.0000000
            S   1   1.00
                  0.01800469             1.0000000
            P   7   1.00
              20790.78649538             0.0018258
               5075.01233415             0.0067381
               1705.4593875              0.0268893
                662.49806644             0.0829009
                278.0963688              0.2309046
                122.91314505             0.3473797
                 56.44361747             0.3033615
            P   2   1.00
                 24.90820425             0.4282180
                 11.79430949             0.5717819
            P   3   1.00
                  5.25272385             0.2496539
                  2.5120921              0.5894355
                  1.15038269             0.1609105
            P   1   1.00
                  0.45241457             1.0000000
            P   1   1.00
                  0.17448459             1.0000000
            P   1   1.00
                  0.01654198             1.0000000
            D   5   1.00
                485.73820421             0.0106946
                144.54597384             0.0707316
                 53.66053808             0.2320806
                 21.6895271              0.3800241
                  9.16389558             0.3064689
            D   2   1.00
                  3.50661153             0.5989391
                  1.28254997             0.4010608
            D   1   1.00
                  9.79091475             1.0000000
            ****
            -La     0
            S   7   1.00
             3998130.73722109            0.0040689
             616447.48845486             0.0107919
             147546.92430256             0.0258855
              45145.56511044             0.0564533
              16169.16612592             0.1176119
               6278.34871464             0.2624886
               2520.93278028             0.5226996
            S   3   1.00
               1045.79266257            -0.4669982
                451.41249006            -0.4108107
                199.27398408            -0.1221909
            S   2   1.00
                 90.81290524            -0.6200702
                 42.58651612            -0.3799297
            S   2   1.00
                 16.89186846             0.3908281
                  8.79627248             0.6091718
            S   2   1.00
                  3.58496243            -0.4484314
                  1.78854507            -0.5515685
            S   2   1.00
                  0.53191336             0.5718352
                  0.25623851             0.4281647
            S   1   1.00
                  0.05260473             1.0000000
            S   1   1.00
                  0.02254009             1.0000000
            P   7   1.00
              21518.62949477             0.0018882
               5253.50151695             0.0067936
               1787.44050128             0.0264679
                711.41536934             0.0762512
                304.6976537              0.2180056
                135.87490194             0.3330549
                 62.47138045             0.3375386
            P   3   1.00
                 27.6927786              0.3890060
                 13.16508623             0.4529875
                  6.02513259             0.1580064
            P   2   1.00
                  1.36042431             0.1436099
                  0.52211722             0.8563900
            P   1   1.00
                  2.89717519             1.0000000
            P   1   1.00
                  0.2016244              1.0000000
            P   1   1.00
                  0.0559890              1.0000000
            D   5   1.00
                558.48078918             0.0101406
                168.08085189             0.0647535
                 63.76158908             0.2268837
                 26.70219944             0.3841403
                 11.76349747             0.3140817
            D   2   1.00
                  4.84911194            -0.5334640
                  2.00222533            -0.4665359
            D   1   1.00
                  0.71963271             1.0000000
            D   1   1.00
                  0.18696763             1.0000000
            F   1   1.00
                  0.2459837              1.0000000
            ****
            -Hf     0
            S   7   1.00
             6410731.86049468            0.0059307
             982921.10883135             0.0152481
             233876.26777358             0.0341191
              72011.56845561             0.0682002
              26282.76228597             0.1266301
              10313.88377026             0.2664500
               4108.18805489             0.4834215
            S   3   1.00
               1677.82905866             0.5058108
                712.54432032             0.3798608
                304.99517413             0.1143283
            S   2   1.00
                144.08890318            -0.7820198
                 68.90441519            -0.2179801
            S   2   1.00
                 27.93528937             0.5623734
                 14.6576598              0.4376265
            S   2   1.00
                  6.03493432            -0.6647375
                  2.94698031            -0.3352624
            S   2   1.00
                  0.87711516            -0.6922624
                  0.39440701            -0.3077375
            S   1   1.00
                  0.07171444             1.0000000
            S   1   1.00
                  0.02839927             1.0000000
            P   7   1.00
              30668.25948905             0.0033003
               7427.36916277             0.0109353
               2472.92649251             0.0391737
                961.64000268             0.1096260
                409.76032624             0.2649049
                185.67234061             0.3388858
                 87.8845603              0.2331738
            P   2   1.00
                 40.72343996             0.5921003
                 19.96625157             0.4078996
            P   2   1.00
                  9.03327815             0.4165697
                  4.23449844             0.5834302
            P   2   1.00
                  1.79496141             0.2699272
                  0.76505995             0.7300727
            P   1   1.00
                  0.29289971             1.0000000
            P   1   1.00
                  0.05491585             1.0000000
            D   5   1.00
                794.64137627             0.0159545
                239.68675574             0.0942388
                 91.48245986             0.2905735
                 38.63442299             0.4048618
                 17.0537650              0.1943712
            D   2   1.00
                  7.27509326             0.6963666
                  2.93345329             0.3036333
            D   1   1.00
                  0.79007033             1.0000000
            D   1   1.00
                  0.21353665             1.0000000
            F   4   1.00
                 57.30718915             0.0611102
                 17.80864909             0.2413361
                  6.0391431              0.3857075
                  1.83994935             0.3118461
            F   1   1.00
                  2.12707466             1.0000000
            ****
            -Ta     0
            S   10   1.00
             6597232.23193603            0.0024862
             1007458.94587496            0.0063880
             239475.86147182             0.0142389
              74172.03331521             0.0273712
              27851.68896941             0.0498102
              11273.13542395             0.0966558
               4533.90520179             0.1929274
               1849.45938139             0.2846464
                785.50643948             0.2800340
                345.3180915              0.0454403
            S   1   1.00
                 28.67618248             1.0000000
            S   1   1.00
                 15.14752397             1.0000000
            S   1   1.00
                  3.06767452             1.0000000
            S   1   1.00
                  0.94246775             1.0000000
            S   1   1.00
                  0.4248492              1.0000000
            S   1   1.00
                  0.07800452             1.0000000
            S   1   1.00
                  0.03028834             1.0000000
            P   7   1.00
              31179.9837387              0.0034749
               7652.69489837             0.0110787
               2601.52154392             0.0384213
               1031.27374267             0.1043968
                443.86760314             0.2574985
                201.61601469             0.3378606
                 95.35127783             0.2472691
            P   2   1.00
                 44.05112795             0.5769549
                 21.62521867             0.4230450
            P   2   1.00
                  9.91592843             0.3941788
                  4.70165754             0.6058211
            P   2   1.00
                  2.0812157              0.2615624
                  0.86639316             0.7384375
            P   1   1.00
                  0.32979551             1.0000000
            P   1   1.00
                  0.02927985             1.0000000
            D   5   1.00
                766.91328433             0.0190125
                231.08003274             0.1108589
                 88.10199526             0.3221237
                 37.1728187              0.3992750
                 16.23257498             0.1487297
            D   2   1.00
                  7.02792586            -0.7761265
                  2.89181117            -0.2238734
            D   1   1.00
                  0.81047042             1.0000000
            D   1   1.00
                  0.22972783             1.0000000
            F   4   1.00
                 61.65853553             0.0686535
                 19.25206034             0.2658316
                  6.59355469             0.4039540
                  2.04937197             0.2615608
            F   1   1.00
                  2.5236970              1.0000000
            ****
            -W     0
            S   7   1.00
             6418565.18753791            0.0064532
             983288.65062392             0.0163546
             238048.00574063             0.0355482
              74232.33704228             0.0703243
              27262.74161667             0.1286573
              10762.34210691             0.2669684
               4306.80027543             0.4756937
            S   3   1.00
               1761.82798206             0.5132371
                747.53643864             0.3738563
                317.20624561             0.1129064
            S   2   1.00
                151.32385871             0.8151981
                 72.69694364             0.1848018
            S   2   1.00
                 29.40479782             0.5930388
                 15.44017399             0.4069611
            S   2   1.00
                  6.43794438            -0.6876898
                  3.1879674             -0.3123101
            S   2   1.00
                  1.01232978             0.7242124
                  0.45538889             0.2757875
            S   1   1.00
                  0.08473158             1.0000000
            S   1   1.00
                  0.0324967              1.0000000
            P   7   1.00
              35145.85681559             0.0032285
               8519.34740943             0.0102829
               2852.76372126             0.0359220
               1117.14451937             0.0987422
                476.95658162             0.2475066
                215.1400099              0.3394338
                101.00605085             0.2648838
            P   2   1.00
                 45.99411001             0.5407956
                 22.40997337             0.4592043
            P   2   1.00
                 10.08037113             0.3922483
                  4.7615397              0.6077516
            P   2   1.00
                  2.05271764             0.2770517
                  0.8897736              0.7229482
            P   1   1.00
                  0.34335843             1.0000000
            P   1   1.00
                  0.0601934              1.0000000
            D   5   1.00
                822.87635084             0.0170077
                248.38600067             0.0991188
                 94.87349465             0.2997735
                 40.11191776             0.4044853
                 17.65608185             0.1796145
            D   2   1.00
                  7.62295985            -0.7331697
                  3.14804289            -0.2668302
            D   1   1.00
                  0.90098149             1.0000000
            D   1   1.00
                  0.26087337             1.0000000
            F   4   1.00
                 65.62008117             0.0600240
                 20.58374062             0.2437701
                  7.11329521             0.4018664
                  2.25077914             0.2943394
            F   1   1.00
                  0.55804402             1.0000000
            ****
            -Re     0
            S   10   1.00
             7353173.11873758            0.0025343
             1141458.7004534             0.0063719
             276849.16595284             0.0138526
              85729.52806891             0.0273752
              30584.31207753             0.0535798
              11617.47261026             0.1070662
               4559.60994257             0.2024546
               1861.78512972             0.2974879
                796.05385143             0.2671398
                348.75709751             0.0221367
            S   1   1.00
                 77.29346694             1.0000000
            S   1   1.00
                 31.18431102             1.0000000
            S   1   1.00
                  6.82105035             1.0000000
            S   1   1.00
                  3.46056947             1.0000000
            S   1   1.00
                  0.61060371             1.0000000
            S   1   1.00
                  0.26088612             1.0000000
            S   1   1.00
                  0.05765105             1.0000000
            P   7   1.00
              38607.68664896             0.0031161
               9278.26796902             0.0099509
               3052.91144965             0.0353156
               1168.34489235             0.1008994
                488.07916315             0.2548180
                216.40685403             0.3491139
                100.43499637             0.2467859
            P   2   1.00
                 44.74024474             0.6223075
                 21.64509204             0.3776924
            P   2   1.00
                  8.67264996             0.5796761
                  4.21007873             0.4203238
            P   2   1.00
                  2.18094428             0.2713515
                  1.05646507             0.7286484
            P   1   1.00
                  0.43361436             1.0000000
            P   1   1.00
                  0.0410164              1.0000000
            D   5   1.00
                828.06708115             0.0181497
                249.08888098             0.1061092
                 94.44727925             0.3158506
                 39.40399687             0.4090277
                 16.75617562             0.1508626
            D   2   1.00
                  7.35752298            -0.7978421
                  3.09657904            -0.2021578
            D   1   1.00
                  0.92786581             1.0000000
            D   1   1.00
                  0.27711325             1.0000000
            F   4   1.00
                 69.8803777              0.0608483
                 22.00531312             0.2475644
                  7.66325167             0.4101966
                  2.46182535             0.2813906
            F   1   1.00
                  0.79685276             1.0000000
            ****
            -Os     0
            S   10   1.00
             6920939.29740365            0.0027952
             1072260.5250188             0.0069948
             260040.58299031             0.0150968
              81982.95828265             0.0285439
              30656.95009919             0.0525673
              12168.52587471             0.1030957
               4861.52927595             0.1974696
               1991.06140312             0.2926512
                851.39541112             0.2747293
                377.20291096             0.0260553
            S   2   1.00
                  6.99392866             0.7149057
                  3.53088523             0.2850942
            S   2   1.00
                  1.13682714            -0.7436224
                  0.50117028            -0.2563775
            S   1   1.00
                 80.5567551              1.0000000
            S   1   1.00
                 32.23473776             1.0000000
            S   1   1.00
                 17.07709338             1.0000000
            S   1   1.00
                  0.0881159              1.0000000
            S   1   1.00
                  0.03284448             1.0000000
            P   7   1.00
              40346.12050402             0.0031483
               9844.65415646             0.0096010
               3291.23708579             0.0334589
               1268.67634529             0.0945330
                530.87177153             0.2439348
                235.88871766             0.3433542
                109.8316406              0.2719696
            P   2   1.00
                 49.91984576            -0.5286506
                 24.37713618            -0.4713493
            P   3   1.00
                 11.10426727            -0.3950517
                  5.28733593            -0.5273917
                  2.3234113             -0.0775565
            P   1   1.00
                  1.01104126             1.0000000
            P   1   1.00
                  0.38475648             1.0000000
            P   1   1.00
                  0.02908831             1.0000000
            D   5   1.00
                836.69122485             0.0189259
                252.12086402             0.1091404
                 96.03347935             0.3186064
                 40.41822573             0.4039028
                 17.46614789             0.1494243
            D   2   1.00
                  7.54579889            -0.8102552
                  3.15745393            -0.1897447
            D   1   1.00
                  0.95971364             1.0000000
            D   1   1.00
                  0.26827271             1.0000000
            F   4   1.00
                 73.67007703             0.0600656
                 23.28958019             0.2466518
                  8.16802748             0.4113618
                  2.66067186             0.2819207
            F   1   1.00
                  0.74229121             1.0000000
            ****
            -Ir     0
            S   7   1.00
             7355062.27296250            0.0069111
             1122449.7486304             0.0176586
             264043.32652364             0.0393488
              79530.18099874             0.0782062
              28940.43003677             0.1363938
              11833.91309241             0.2624569
               4898.94958465             0.4590242
            S   3   1.00
               2028.13688819            -0.4938033
                864.38370146            -0.3790977
                378.3970878             -0.1270988
            S   2   1.00
                170.78383882            -0.7842707
                 81.1362117             -0.2157292
            S   2   1.00
                 32.67309091             0.5936400
                 17.21618845             0.4063599
            S   2   1.00
                  7.1874003             -0.7019158
                  3.63595494            -0.2980841
            S   2   1.00
                  1.20019649             0.7957848
                  0.52543821             0.2042151
            S   1   1.00
                  0.08892968             1.0000000
            S   1   1.00
                  0.03291613             1.0000000
            P   5   1.00
              38431.59716761             0.0156445
               3252.59762142             0.2001805
                562.51297953             0.7841727
                253.74309887             0.4261718
                118.60463149             0.3727620
            P   2   1.00
                 53.95344888            -0.4230753
                 26.3523015             -0.5769246
            P   2   1.00
                 12.11454332             0.4029589
                  5.78798245             0.5970410
            P   2   1.00
                  2.60343024             0.5422362
                  1.11210204             0.4577637
            P   1   1.00
                  0.4213489              1.0000000
            P   1   1.00
                  0.0357323              1.0000000
            D   5   1.00
                854.65756706             0.0187164
                257.4491460              0.1077190
                 97.98220218             0.3187818
                 41.19164459             0.4068428
                 17.70900161             0.1479398
            D   2   1.00
                  7.64851115            -0.8271810
                  3.21028776            -0.1728189
            D   1   1.00
                  1.01887691             1.0000000
            D   1   1.00
                  0.28992313             1.0000000
            F   4   1.00
                 77.67028678             0.0588165
                 24.64579022             0.2456998
                  8.70155207             0.4119069
                  2.87091399             0.2835766
            F   1   1.00
                  0.71360987             1.0000000
            ****
            -Pt     0
            S   10   1.00
             2791808.07651936            0.0052740
             882487.58526301             0.0036641
             278953.39392896             0.0166259
              83026.90575739             0.0288106
              33189.87040279             0.0488852
              13267.59665804             0.1021060
               5303.70016346             0.1868102
               2181.30805267             0.2932968
                928.84325487             0.2586253
                395.51946414             0.0559015
            S   2   1.00
                 30.53825011            -0.8144023
                 13.0037789             -0.1855976
            S   1   1.00
                168.41985523             1.0000000
            S   1   1.00
                 71.71643928             1.0000000
            S   1   1.00
                  5.53726114             1.0000000
            S   1   1.00
                  1.00402809             1.0000000
            S   1   1.00
                  0.18205253             1.0000000
            S   1   1.00
                  0.07752150             1.0000000
            P   7   1.00
              25389.72897085             0.0052607
               7404.32819925             0.0130455
               2613.69445646             0.0470923
               1062.96770831             0.1154384
                472.67119558             0.2631938
                218.47683705             0.3367704
                100.9837891              0.2191984
            P   2   1.00
                 46.67646144             0.6846154
                 21.57467126             0.3153845
            P   2   1.00
                  9.97218782             0.5690194
                  4.60931843             0.4309805
            P   2   1.00
                  2.13050704             0.4262158
                  0.98475736             0.5737841
            P   1   1.00
                  0.45517196             1.0000000
            P   1   1.00
                  0.12639299             1.0000000
            P   1   1.00
                  0.04712598             1.0000000
            D   5   1.00
                944.74967668             0.0163935
                298.59854131             0.0903710
                113.41571932             0.2965888
                 46.72129236             0.4234354
                 20.49825991             0.1732111
            D   2   1.00
                  7.6290246              0.8619133
                  2.83936376             0.1380866
            D   1   1.00
                  1.05675194             1.0000000
            D   1   1.00
                  0.39330102             1.0000000
            F   4   1.00
                 81.71356317             0.0594586
                 26.01465414             0.2487810
                  9.24164592             0.4172949
                  3.08336027             0.2744653
            F   1   1.00
                  0.8488304              1.0000000
            ****
            -Au     0
            S   8   1.00
             14703222.86676416           0.0037526
             2262824.6780320             0.0100581
             541256.94037958             0.0214627
             164442.91034176             0.0419279
              59155.59429110             0.0745368
              24111.28878337             0.1319630
              10152.24890131             0.2484028
               4170.67168425             0.4678957
            S   2   1.00
               1707.4339431              0.5704913
                708.28135147             0.4295086
            S   3   1.00
                243.52806941            -0.4833215
                117.22573806            -0.4189882
                 53.38778177            -0.0976901
            S   2   1.00
                 10.72476847             0.5023106
                  4.98291235             0.4976893
            S   2   1.00
                  1.37574165            -0.7187708
                  0.66299967            -0.2812291
            S   1   1.00
                 25.23167009             1.0000000
            S   1   1.00
                  0.11066351             1.0000000
            S   1   1.00
                  0.03911478             1.0000000
            P   8   1.00
              57867.45693148             0.0025583
              14466.07282046             0.0069902
               5096.80289128             0.0204152
               2035.23445681             0.0610881
                842.36068729             0.1629640
                361.46395991             0.3385020
                161.78689265             0.3128406
                 73.04451373             0.0946414
            P   3   1.00
                 16.95126547             0.2800147
                  7.8956218              0.4069449
                  3.73415826             0.3130403
            P   1   1.00
                 35.18821179             1.0000000
            P   1   1.00
                  1.40958119             1.0000000
            P   1   1.00
                  0.52307734             1.0000000
            P   1   1.00
                  0.12434867             1.0000000
            P   1   1.00
                  0.03469933             1.0000000
            D   5   1.00
               1057.31409955             0.0149745
                315.34985277             0.0904567
                118.76210977             0.2923335
                 49.52241329             0.4170518
                 21.54470227             0.1851834
            D   2   1.00
                  9.19880872            -0.7782852
                  3.88284809            -0.2217147
            D   1   1.00
                  1.23471691             1.0000000
            D   1   1.00
                  0.35702456             1.0000000
            F   4   1.00
                 86.31773515             0.0583691
                 27.55700975             0.2444140
                  9.83940823             0.4153993
                  3.31580164             0.2818174
            F   1   1.00
                  0.8410348              1.0000000
            ****
            -Hg     0
            S   7   1.00
             8239950.19726132           -0.0072838
             1266363.04736361           -0.0182230
[...]
 Alpha vir 79 OE=0.343 is Ce1-f=0.59 Ce1-p=0.39 Ce1-d=0.05
 Alpha vir 80 OE=0.343 is Ce1-f=0.59 Ce1-p=0.39 Ce1-d=0.05
 Alpha vir 81 OE=0.343 is Ce1-f=0.59 Ce1-p=0.39 Ce1-d=0.05
 Alpha vir 82 OE=0.392 is Ce1-f=1.08 F5-p=-0.02 F3-p=-0.02 F2-p=-0.02 F4-p=-0.02
 Alpha vir 83 OE=0.392 is Ce1-f=1.08 F5-p=-0.02 F4-p=-0.02 F2-p=-0.02 F3-p=-0.02
 Alpha vir 84 OE=0.392 is Ce1-f=1.08 F5-p=-0.02 F4-p=-0.02 F3-p=-0.02 F2-p=-0.02
 Alpha vir 85 OE=0.409 is Ce1-p=0.50 Ce1-f=0.30 Ce1-d=0.29 F4-s=-0.02 F3-s=-0.02 F2-s=-0.02 F5-s=-0.02
 Alpha vir 86 OE=0.409 is Ce1-p=0.50 Ce1-f=0.30 Ce1-d=0.29 F5-s=-0.02 F2-s=-0.02 F3-s=-0.02 F4-s=-0.02
 Alpha vir 87 OE=0.409 is Ce1-p=0.50 Ce1-f=0.30 Ce1-d=0.29 F5-s=-0.02 F4-s=-0.02 F3-s=-0.02 F2-s=-0.02
 Alpha vir 88 OE=0.435 is Ce1-f=1.02 Ce1-s=0.21 F5-s=-0.06 F4-s=-0.06 F3-s=-0.06 F2-s=-0.06
 Alpha vir 89 OE=0.495 is Ce1-d=1.04 F3-p=-0.01 F5-p=-0.01 F2-p=-0.01 F4-p=-0.01
 Alpha vir 90 OE=0.495 is Ce1-d=1.04 F4-p=-0.01 F5-p=-0.01 F2-p=-0.01 F3-p=-0.01
 Alpha vir 91 OE=0.541 is Ce1-d=1.00 Ce1-f=0.14 Ce1-p=0.05 F4-s=-0.04 F2-s=-0.04 F5-s=-0.04 F3-s=-0.04
 Alpha vir 92 OE=0.541 is Ce1-d=1.00 Ce1-f=0.14 Ce1-p=0.05 F4-s=-0.04 F5-s=-0.04 F2-s=-0.04 F3-s=-0.04
 Alpha vir 93 OE=0.541 is Ce1-d=1.00 Ce1-f=0.14 Ce1-p=0.05 F2-s=-0.04 F3-s=-0.04 F5-s=-0.04 F4-s=-0.04
 Alpha vir 94 OE=0.923 is Ce1-s=0.90 Ce1-f=0.09
 Alpha vir 95 OE=0.988 is Ce1-f=0.99
 Alpha vir 96 OE=0.988 is Ce1-f=0.99
 Alpha vir 97 OE=0.988 is Ce1-f=0.99
 Alpha vir 98 OE=0.996 is Ce1-f=0.63 Ce1-p=0.35
 Alpha vir 99 OE=0.996 is Ce1-f=0.63 Ce1-p=0.35
 Alpha vir 100 OE=0.996 is Ce1-f=0.63 Ce1-p=0.35
 Alpha vir 101 OE=1.150 is Ce1-p=0.65 Ce1-f=0.35 Ce1-d=0.05 F5-p=-0.01 F3-p=-0.01 F2-p=-0.01 F4-p=-0.01
 Alpha vir 102 OE=1.150 is Ce1-p=0.65 Ce1-f=0.35 Ce1-d=0.05 F3-p=-0.01 F5-p=-0.01 F2-p=-0.01 F4-p=-0.01
 Alpha vir 103 OE=1.150 is Ce1-p=0.65 Ce1-f=0.35 Ce1-d=0.05 F4-p=-0.01 F3-p=-0.01 F5-p=-0.01 F2-p=-0.01
 Alpha vir 104 OE=1.289 is Ce1-f=0.87 Ce1-s=0.15 F5-s=-0.02 F2-s=-0.02 F3-s=-0.02 F4-s=-0.02
 Alpha vir 105 OE=1.351 is F5-p=0.27 F2-p=0.27 F4-p=0.27 F3-p=0.27 Ce1-p=-0.04 Ce1-d=-0.03 Ce1-f=-0.02
 Alpha vir 106 OE=1.351 is F4-p=0.27 F2-p=0.27 F3-p=0.27 F5-p=0.27 Ce1-p=-0.04 Ce1-d=-0.03 Ce1-f=-0.02
 Alpha vir 107 OE=1.351 is F3-p=0.27 F4-p=0.27 F2-p=0.27 F5-p=0.27 Ce1-p=-0.04 Ce1-d=-0.03 Ce1-f=-0.02
 Alpha vir 108 OE=1.456 is F2-p=0.28 F4-p=0.28 F3-p=0.28 F5-p=0.28 Ce1-f=-0.11
 Alpha vir 109 OE=1.456 is F4-p=0.28 F2-p=0.28 F3-p=0.28 F5-p=0.28 Ce1-f=-0.11
 Alpha vir 110 OE=1.456 is F3-p=0.28 F2-p=0.28 F4-p=0.28 F5-p=0.28 Ce1-f=-0.11
 Alpha vir 111 OE=1.481 is F4-p=0.25 F5-p=0.25 F3-p=0.25 F2-p=0.25 Ce1-s=-0.06 F4-s=0.02 F3-s=0.02 F2-s=0.02 F5-s=0.02
 Alpha vir 112 OE=1.486 is F3-p=0.27 F4-p=0.27 F2-p=0.27 F5-p=0.27 Ce1-d=-0.07
 Alpha vir 113 OE=1.486 is F4-p=0.27 F3-p=0.27 F2-p=0.27 F5-p=0.27 Ce1-d=-0.07
 Alpha vir 114 OE=1.540 is F2-p=0.27 F5-p=0.27 F3-p=0.27 F4-p=0.27 Ce1-p=-0.04 Ce1-d=-0.03 Ce1-f=-0.02
 Alpha vir 115 OE=1.540 is F5-p=0.27 F4-p=0.27 F3-p=0.27 F2-p=0.27 Ce1-p=-0.04 Ce1-d=-0.03 Ce1-f=-0.02
 Alpha vir 116 OE=1.540 is F3-p=0.27 F4-p=0.27 F2-p=0.27 F5-p=0.27 Ce1-p=-0.04 Ce1-d=-0.03 Ce1-f=-0.02
 Alpha vir 117 OE=1.732 is Ce1-d=0.99
 Alpha vir 118 OE=1.732 is Ce1-d=0.99
 Alpha vir 119 OE=1.924 is Ce1-d=0.91 Ce1-p=0.03 Ce1-f=0.02 F4-s=0.01 F5-s=0.01 F2-s=0.01 F3-s=0.01
 Alpha vir 120 OE=1.924 is Ce1-d=0.91 Ce1-p=0.03 Ce1-f=0.02 F2-s=0.01 F4-s=0.01 F5-s=0.01 F3-s=0.01
 Alpha vir 121 OE=1.924 is Ce1-d=0.91 Ce1-p=0.03 Ce1-f=0.02 F4-s=0.01 F3-s=0.01 F2-s=0.01 F5-s=0.01
 Alpha vir 122 OE=2.118 is F5-s=0.31 F4-s=0.31 F3-s=0.31 F2-s=0.31 Ce1-f=-0.19 Ce1-s=-0.14 F3-p=0.02 F2-p=0.02 F5-p=0.02 F4-p=0.02
 Alpha vir 123 OE=2.305 is F2-s=0.30 F4-s=0.30 F3-s=0.30 F5-s=0.30 Ce1-d=-0.11 Ce1-p=-0.09 Ce1-f=-0.06
 Alpha vir 124 OE=2.305 is F3-s=0.30 F5-s=0.30 F4-s=0.30 F2-s=0.30 Ce1-d=-0.11 Ce1-p=-0.09 Ce1-f=-0.06
 Alpha vir 125 OE=2.305 is F2-s=0.30 F4-s=0.30 F3-s=0.30 F5-s=0.30 Ce1-d=-0.11 Ce1-p=-0.09 Ce1-f=-0.06
 Alpha vir 126 OE=3.426 is Ce1-s=0.99
 Alpha vir 127 OE=4.221 is F3-d=0.25 F2-d=0.25 F5-d=0.25 F4-d=0.25
 Alpha vir 128 OE=4.221 is F3-d=0.25 F5-d=0.25 F4-d=0.25 F2-d=0.25
 Alpha vir 129 OE=4.223 is F5-d=0.25 F3-d=0.25 F4-d=0.25 F2-d=0.25
 Alpha vir 130 OE=4.223 is F4-d=0.25 F3-d=0.25 F2-d=0.25 F5-d=0.25
 Alpha vir 131 OE=4.223 is F3-d=0.25 F2-d=0.25 F5-d=0.25 F4-d=0.25
 Alpha vir 132 OE=4.236 is F3-d=0.25 F4-d=0.25 F2-d=0.25 F5-d=0.25 Ce1-p=0.01
 Alpha vir 133 OE=4.236 is F2-d=0.25 F3-d=0.25 F4-d=0.25 F5-d=0.25 Ce1-p=0.01
 Alpha vir 134 OE=4.236 is F2-d=0.25 F4-d=0.25 F5-d=0.25 F3-d=0.25 Ce1-p=0.01
 Alpha vir 135 OE=4.261 is F3-d=0.24 F2-d=0.24 F5-d=0.24 F4-d=0.24 Ce1-p=0.05
 Alpha vir 136 OE=4.261 is F5-d=0.24 F2-d=0.24 F3-d=0.24 F4-d=0.24 Ce1-p=0.05
 Alpha vir 137 OE=4.261 is F4-d=0.24 F5-d=0.24 F3-d=0.24 F2-d=0.24 Ce1-p=0.05
 Alpha vir 138 OE=4.291 is F2-d=0.25 F3-d=0.25 F5-d=0.25 F4-d=0.25 Ce1-d=0.01
 Alpha vir 139 OE=4.291 is F3-d=0.25 F2-d=0.25 F4-d=0.25 F5-d=0.25 Ce1-d=0.01
 Alpha vir 140 OE=4.343 is F2-d=0.25 F5-d=0.25 F4-d=0.25 F3-d=0.25
 Alpha vir 141 OE=4.343 is F3-d=0.25 F5-d=0.25 F2-d=0.25 F4-d=0.25
 Alpha vir 142 OE=4.343 is F3-d=0.25 F2-d=0.25 F5-d=0.25 F4-d=0.25
 Alpha vir 143 OE=4.530 is Ce1-p=0.78 F5-d=0.05 F3-d=0.05 F4-d=0.05 F2-d=0.05
 Alpha vir 144 OE=4.530 is Ce1-p=0.78 F3-d=0.05 F2-d=0.05 F5-d=0.05 F4-d=0.05
 Alpha vir 145 OE=4.530 is Ce1-p=0.78 F4-d=0.05 F2-d=0.05 F3-d=0.05 F5-d=0.05
 Alpha vir 146 OE=4.649 is F4-d=0.24 F5-d=0.24 F3-d=0.24 F2-d=0.24 Ce1-s=0.02
 Alpha vir 147 OE=4.705 is F5-d=0.20 F4-d=0.20 F2-d=0.20 F3-d=0.20 Ce1-p=0.17 Ce1-d=0.02
 Alpha vir 148 OE=4.705 is F4-d=0.20 F3-d=0.20 F5-d=0.20 F2-d=0.20 Ce1-p=0.17 Ce1-d=0.02
 Alpha vir 149 OE=4.705 is F3-d=0.20 F4-d=0.20 F2-d=0.20 F5-d=0.20 Ce1-p=0.17 Ce1-d=0.02
 Alpha vir 150 OE=6.782 is F2-p=0.25 F3-p=0.25 F5-p=0.25 F4-p=0.25
 Alpha vir 151 OE=6.782 is F5-p=0.25 F3-p=0.25 F2-p=0.25 F4-p=0.25
 Alpha vir 152 OE=6.782 is F5-p=0.25 F2-p=0.25 F4-p=0.25 F3-p=0.25
 Alpha vir 153 OE=6.823 is F4-p=0.25 F2-p=0.25 F5-p=0.25 F3-p=0.25
 Alpha vir 154 OE=6.823 is F2-p=0.25 F3-p=0.25 F4-p=0.25 F5-p=0.25
 Alpha vir 155 OE=6.823 is F5-p=0.25 F2-p=0.25 F4-p=0.25 F3-p=0.25
 Alpha vir 156 OE=6.835 is F3-p=0.25 F2-p=0.25 F5-p=0.25 F4-p=0.25
 Alpha vir 157 OE=6.835 is F5-p=0.25 F2-p=0.25 F4-p=0.25 F3-p=0.25
 Alpha vir 158 OE=6.887 is F5-p=0.25 F2-p=0.25 F3-p=0.25 F4-p=0.25
 Alpha vir 159 OE=6.889 is F5-p=0.25 F4-p=0.25 F2-p=0.25 F3-p=0.25
 Alpha vir 160 OE=6.889 is F5-p=0.25 F2-p=0.25 F4-p=0.25 F3-p=0.25
 Alpha vir 161 OE=6.889 is F2-p=0.25 F3-p=0.25 F5-p=0.25 F4-p=0.25
 Alpha vir 162 OE=8.163 is Ce1-d=1.00
 Alpha vir 163 OE=8.163 is Ce1-d=1.00
 Alpha vir 164 OE=8.300 is Ce1-d=0.99
 Alpha vir 165 OE=8.300 is Ce1-d=0.99
 Alpha vir 166 OE=8.300 is Ce1-d=0.99
 Alpha vir 167 OE=13.714 is Ce1-s=1.00
 Alpha vir 168 OE=23.988 is Ce1-p=1.00
 Alpha vir 169 OE=23.988 is Ce1-p=1.00
 Alpha vir 170 OE=23.988 is Ce1-p=1.00
 Alpha vir 171 OE=44.535 is Ce1-d=1.00
 Alpha vir 172 OE=44.535 is Ce1-d=1.00
 Alpha vir 173 OE=44.607 is Ce1-d=1.00
 Alpha vir 174 OE=44.607 is Ce1-d=1.00
 Alpha vir 175 OE=44.607 is Ce1-d=1.00
 Alpha vir 176 OE=59.948 is Ce1-s=1.00
 Alpha vir 177 OE=67.402 is F4-s=0.25 F3-s=0.25 F2-s=0.25 F5-s=0.25
 Alpha vir 178 OE=67.443 is F5-s=0.25 F3-s=0.25 F4-s=0.25 F2-s=0.25
 Alpha vir 179 OE=67.443 is F5-s=0.25 F4-s=0.25 F2-s=0.25 F3-s=0.25
 Alpha vir 180 OE=67.443 is F5-s=0.25 F4-s=0.25 F3-s=0.25 F2-s=0.25
 Alpha vir 181 OE=127.135 is Ce1-p=1.00
 Alpha vir 182 OE=127.135 is Ce1-p=1.00
 Alpha vir 183 OE=127.135 is Ce1-p=1.00
 Alpha vir 184 OE=241.425 is Ce1-s=1.00
 Alpha vir 185 OE=596.001 is Ce1-p=1.00
 Alpha vir 186 OE=596.001 is Ce1-p=1.00
 Alpha vir 187 OE=596.001 is Ce1-p=1.00
 Alpha vir 188 OE=819.630 is Ce1-s=1.00
 Alpha vir 189 OE=2342.917 is Ce1-s=1.00
 Alpha vir 190 OE=5790.537 is Ce1-s=1.00
 Alpha vir 191 OE=12638.953 is Ce1-s=1.00
 Alpha vir 192 OE=31001.825 is Ce1-s=1.00
 
 Orbital energies and kinetic energies (alpha):
                                 1                 2
   1         (A1)--O       -1492.203126       2375.502332
   2         (A1)--O        -243.378761        495.728807
   3         (T2)--O        -218.121546        388.838139
   4         (T2)--O        -218.121546        388.838139
   5         (T2)--O        -218.121546        388.838139
   6         (A1)--O         -54.465114        142.918235
   7         (T2)--O         -46.192719        116.942408
   8         (T2)--O         -46.192719        116.942408
   9         (T2)--O         -46.192719        116.942408
  10         (T2)--O         -34.290092        103.001383
  11         (T2)--O         -34.290092        103.001383
  12         (T2)--O         -34.290092        103.001383
  13         (E)--O          -34.289954        103.000899
  14         (E)--O          -34.289954        103.000899
  15         (A1)--O         -26.302616         37.525731
  16         (T2)--O         -26.302615         37.525609
  17         (T2)--O         -26.302615         37.525609
  18         (T2)--O         -26.302615         37.525609
  19         (A1)--O         -12.032562         41.309407
  20         (T2)--O          -9.200388         33.189891
  21         (T2)--O          -9.200388         33.189891
  22         (T2)--O          -9.200388         33.189891
  23         (T2)--O          -4.964801         25.531939
  24         (T2)--O          -4.964801         25.531939
  25         (T2)--O          -4.964801         25.531939
  26         (E)--O           -4.962915         25.495023
  27         (E)--O           -4.962915         25.495023
  28         (A1)--O          -2.073568          8.455563
  29         (T2)--O          -1.593136          3.845154
  30         (T2)--O          -1.593136          3.845154
  31         (T2)--O          -1.593136          3.845154
  32         (A1)--O          -1.542257          4.385798
  33         (T2)--O          -1.211149          6.239081
  34         (T2)--O          -1.211149          6.239081
  35         (T2)--O          -1.211149          6.239081
  36         (T2)--O          -0.676524          3.083337
  37         (T2)--O          -0.676524          3.083337
  38         (T2)--O          -0.676524          3.083337
  39         (E)--O           -0.662510          2.861640
  40         (E)--O           -0.662510          2.861640
  41         (A1)--O          -0.652372          3.628476
  42         (T1)--O          -0.640010          3.047189
  43         (T1)--O          -0.640010          3.047189
  44         (T1)--O          -0.640010          3.047189
  45         (T2)--O          -0.606333          3.733841
  46         (T2)--O          -0.606333          3.733841
  47         (T2)--O          -0.606333          3.733841
  48         (A1)--V           0.017427          0.607188
  49         (T2)--V           0.028940          0.074492
  50         (T2)--V           0.028940          0.074492
  51         (T2)--V           0.028940          0.074492
  52         (E)--V            0.039268          0.047073
  53         (E)--V            0.039268          0.047073
  54         (T2)--V           0.040224          0.071614
  55         (T2)--V           0.040224          0.071614
  56         (T2)--V           0.040224          0.071614
  57         (A1)--V           0.068019          4.320672
  58         (T2)--V           0.076490          7.360139
  59         (T2)--V           0.076490          7.360139
  60         (T2)--V           0.076490          7.360139
  61         (T1)--V           0.100645         11.415230
  62         (T1)--V           0.100645         11.415230
  63         (T1)--V           0.100645         11.415230
  64         (E)--V            0.106304          2.973300
  65         (E)--V            0.106304          2.973300
  66         (T2)--V           0.112075          2.706339
  67         (T2)--V           0.112075          2.706339
  68         (T2)--V           0.112075          2.706339
  69         (A1)--V           0.137943          6.790104
  70         (E)--V            0.148750          0.562328
  71         (E)--V            0.148750          0.562328
  72         (T2)--V           0.153554          1.436281
  73         (T2)--V           0.153554          1.436281
  74         (T2)--V           0.153554          1.436281
  75         (T2)--V           0.201162          3.138634
  76         (T2)--V           0.201162          3.138634
  77         (T2)--V           0.201162          3.138634
  78         (A1)--V           0.329300          2.334814
  79         (T2)--V           0.342937          1.273874
  80         (T2)--V           0.342937          1.273874
  81         (T2)--V           0.342937          1.273874
  82         (T1)--V           0.392179          0.801818
  83         (T1)--V           0.392179          0.801818
  84         (T1)--V           0.392179          0.801818
  85         (T2)--V           0.408901          2.264801
  86         (T2)--V           0.408901          2.264801
  87         (T2)--V           0.408901          2.264801
  88         (A1)--V           0.434753          0.895309
  89         (E)--V            0.494565          1.755500
  90         (E)--V            0.494565          1.755500
  91         (T2)--V           0.541065          1.520187
  92         (T2)--V           0.541065          1.520187
  93         (T2)--V           0.541065          1.520187
  94         (A1)--V           0.922533          4.205594
  95         (T1)--V           0.987578          4.276209
  96         (T1)--V           0.987578          4.276209
  97         (T1)--V           0.987578          4.276209
  98         (T2)--V           0.996079          4.165475
  99         (T2)--V           0.996079          4.165475
 100         (T2)--V           0.996079          4.165475
 101         (T2)--V           1.150338          4.957184
 102         (T2)--V           1.150338          4.957184
 103         (T2)--V           1.150338          4.957184
 104         (A1)--V           1.289261          4.547359
 105         (T2)--V           1.351343          3.182292
 106         (T2)--V           1.351343          3.182292
 107         (T2)--V           1.351343          3.182292
 108         (T1)--V           1.456296          3.305826
 109         (T1)--V           1.456296          3.305826
 110         (T1)--V           1.456296          3.305826
 111         (A1)--V           1.480833          3.780880
 112         (E)--V            1.486464          3.342075
 113         (E)--V            1.486464          3.342075
 114         (T2)--V           1.539999          3.368904
 115         (T2)--V           1.539999          3.368904
 116         (T2)--V           1.539999          3.368904
 117         (E)--V            1.731672          7.735752
 118         (E)--V            1.731672          7.735752
 119         (T2)--V           1.923602          8.109590
 120         (T2)--V           1.923602          8.109590
 121         (T2)--V           1.923602          8.109590
 122         (A1)--V           2.117917          5.730540
 123         (T2)--V           2.304666          5.841625
 124         (T2)--V           2.304666          5.841625
 125         (T2)--V           2.304666          5.841625
 126         (A1)--V           3.426397         15.127649
 127         (E)--V            4.221347          6.128579
 128         (E)--V            4.221347          6.128579
 129         (T1)--V           4.223127          6.129766
 130         (T1)--V           4.223127          6.129766
 131         (T1)--V           4.223127          6.129766
 132         (T2)--V           4.235610          6.347100
 133         (T2)--V           4.235610          6.347100
 134         (T2)--V           4.235610          6.347100
 135         (T2)--V           4.260715          6.953892
 136         (T2)--V           4.260715          6.953892
 137         (T2)--V           4.260715          6.953892
 138         (E)--V            4.290808          6.349259
 139         (E)--V            4.290808          6.349259
 140         (T1)--V           4.342560          6.309136
 141         (T1)--V           4.342560          6.309136
 142         (T1)--V           4.342560          6.309136
 143         (T2)--V           4.530209         17.781340
 144         (T2)--V           4.530209         17.781340
 145         (T2)--V           4.530209         17.781340
 146         (A1)--V           4.649410          6.721719
 147         (T2)--V           4.705350          9.100512
 148         (T2)--V           4.705350          9.100512
 149         (T2)--V           4.705350          9.100512
 150         (T2)--V           6.782316         15.318171
 151         (T2)--V           6.782316         15.318171
 152         (T2)--V           6.782316         15.318171
 153         (T1)--V           6.822991         15.259709
 154         (T1)--V           6.822991         15.259709
 155         (T1)--V           6.822991         15.259709
 156         (E)--V            6.835385         15.305820
 157         (E)--V            6.835385         15.305820
 158         (A1)--V           6.887237         15.349312
 159         (T2)--V           6.888538         15.331364
 160         (T2)--V           6.888538         15.331364
 161         (T2)--V           6.888538         15.331364
 162         (E)--V            8.162590         36.524373
 163         (E)--V            8.162590         36.524373
 164         (T2)--V           8.299605         36.428741
 165         (T2)--V           8.299605         36.428741
 166         (T2)--V           8.299605         36.428741
 167         (A1)--V          13.714111         61.288062
 168         (T2)--V          23.987748        105.649533
 169         (T2)--V          23.987748        105.649533
 170         (T2)--V          23.987748        105.649533
 171         (E)--V           44.535366        173.235747
 172         (E)--V           44.535366        173.235747
 173         (T2)--V          44.607054        173.212602
 174         (T2)--V          44.607054        173.212602
 175         (T2)--V          44.607054        173.212602
 176         (A1)--V          59.947611        236.376320
 177         (A1)--V          67.402453        163.726225
 178         (T2)--V          67.442577        163.697494
 179         (T2)--V          67.442577        163.697494
 180         (T2)--V          67.442577        163.697494
 181         (T2)--V         127.134754        414.260207
 182         (T2)--V         127.134754        414.260207
 183         (T2)--V         127.134754        414.260207
 184         (A1)--V         241.425145        759.661296
 185         (T2)--V         596.001245       1634.831109
 186         (T2)--V         596.001245       1634.831109
 187         (T2)--V         596.001245       1634.831109
 188         (A1)--V         819.629869       2100.625750
 189         (A1)--V        2342.917168       5125.986653
 190         (A1)--V        5790.536659      12481.978574
 191         (A1)--V       12638.952588      28518.182230
 192         (A1)--V       31001.825271     145884.767712
 Total kinetic energy from orbitals= 1.109420676910D+04

 Test job not archived.
 1\1\GINC-GAMBA\SP\RHF\Gen\Ce1F4\IRIKURA\18-May-2017\0\\# HF/GEN gfinpu
 t geom=check IOP(6/81=3) scf=xqc pop(all,thresh=1) int=DKH2\\BEB step 
 2: Hartree-Fock B and U for cef4\\0,1\Ce,0,0.,-0.000000001,-0.00000000
 1\F,0,0.0000000013,-0.0000000051,2.0322594419\F,0,0.,-1.9160325772,-0.
 6774198191\F,0,-1.6593328873,0.9580162888,-0.6774198123\F,0,1.65933288
 6,0.9580162896,-0.6774198144\\Version=ES64L-G09RevD.01\State=1-A1\HF=-
 9250.4007783\RMSD=2.664e-09\Dipole=0.,0.,0.\Quadrupole=0.,0.,0.,0.,0.,
 0.\PG=TD [O(Ce1),4C3(F1)]\\@


 YOU ARE IN A MAZE OF TWISTY LITTLE PASSAGES.
 Job cpu time:       0 days  0 hours  1 minutes 30.4 seconds.
 File lengths (MBytes):  RWF=     16 Int=      0 D2E=      0 Chk=      3 Scr=      1
 Normal termination of Gaussian 09 at Thu May 18 09:19:32 2017.
