 Entering Gaussian System, Link 0=g09
 Initial command:
 /usr/local/apps/g09/l1.exe "/wrk/irikura/Gau-749.inp" -scrdir="/wrk/irikura/"
 Entering Link 1 = /usr/local/apps/g09/l1.exe PID=       751.
  
 Copyright (c) 1988,1990,1992,1993,1995,1998,2003,2009,2013,
            Gaussian, Inc.  All Rights Reserved.
  
 This is part of the Gaussian(R) 09 program.  It is based on
 the Gaussian(R) 03 system (copyright 2003, Gaussian, Inc.),
 the Gaussian(R) 98 system (copyright 1998, Gaussian, Inc.),
 the Gaussian(R) 94 system (copyright 1995, Gaussian, Inc.),
 the Gaussian 92(TM) system (copyright 1992, Gaussian, Inc.),
 the Gaussian 90(TM) system (copyright 1990, Gaussian, Inc.),
 the Gaussian 88(TM) system (copyright 1988, Gaussian, Inc.),
 the Gaussian 86(TM) system (copyright 1986, Carnegie Mellon
 University), and the Gaussian 82(TM) system (copyright 1983,
 Carnegie Mellon University). Gaussian is a federally registered
 trademark of Gaussian, Inc.
  
 This software contains proprietary and confidential information,
 including trade secrets, belonging to Gaussian, Inc.
  
 This software is provided under written license and may be
 used, copied, transmitted, or stored only in accord with that
 written license.
  
 The following legend is applicable only to US Government
 contracts under FAR:
  
                    RESTRICTED RIGHTS LEGEND
  
 Use, reproduction and disclosure by the US Government is
 subject to restrictions as set forth in subparagraphs (a)
 and (c) of the Commercial Computer Software - Restricted
 Rights clause in FAR 52.227-19.
  
 Gaussian, Inc.
 340 Quinnipiac St., Bldg. 40, Wallingford CT 06492
  
  
 ---------------------------------------------------------------
 Warning -- This program may not be used in any manner that
 competes with the business of Gaussian, Inc. or will provide
 assistance to any competitor of Gaussian, Inc.  The licensee
 of this program is prohibited from giving any competitor of
 Gaussian, Inc. access to this program.  By using this program,
 the user acknowledges that Gaussian, Inc. is engaged in the
 business of creating and licensing software in the field of
 computational chemistry and represents and warrants to the
 licensee that it is not a competitor of Gaussian, Inc. and that
 it will not use this program in any manner prohibited above.
 ---------------------------------------------------------------
  

 Cite this work as:
 Gaussian 09, Revision D.01,
 M. J. Frisch, G. W. Trucks, H. B. Schlegel, G. E. Scuseria, 
 M. A. Robb, J. R. Cheeseman, G. Scalmani, V. Barone, B. Mennucci, 
 G. A. Petersson, H. Nakatsuji, M. Caricato, X. Li, H. P. Hratchian, 
 A. F. Izmaylov, J. Bloino, G. Zheng, J. L. Sonnenberg, M. Hada, 
 M. Ehara, K. Toyota, R. Fukuda, J. Hasegawa, M. Ishida, T. Nakajima, 
 Y. Honda, O. Kitao, H. Nakai, T. Vreven, J. A. Montgomery, Jr., 
 J. E. Peralta, F. Ogliaro, M. Bearpark, J. J. Heyd, E. Brothers, 
 K. N. Kudin, V. N. Staroverov, T. Keith, R. Kobayashi, J. Normand, 
 K. Raghavachari, A. Rendell, J. C. Burant, S. S. Iyengar, J. Tomasi, 
 M. Cossi, N. Rega, J. M. Millam, M. Klene, J. E. Knox, J. B. Cross, 
 V. Bakken, C. Adamo, J. Jaramillo, R. Gomperts, R. E. Stratmann, 
 O. Yazyev, A. J. Austin, R. Cammi, C. Pomelli, J. W. Ochterski, 
 R. L. Martin, K. Morokuma, V. G. Zakrzewski, G. A. Voth, 
 P. Salvador, J. J. Dannenberg, S. Dapprich, A. D. Daniels, 
 O. Farkas, J. B. Foresman, J. V. Ortiz, J. Cioslowski, 
 and D. J. Fox, Gaussian, Inc., Wallingford CT, 2013.
 
 ******************************************
 Gaussian 09:  ES64L-G09RevD.01 24-Apr-2013
                17-May-2017 
 ******************************************
 %chk=o2.chk
 %nprocs=4
 Will use up to    4 processors via shared memory.
 %mem=1000mw
 ---------------------------------------------------------------
 # CCSD(T,maxcyc=100)/GEN gfinput geom=check scf=xqc guess=check
 ---------------------------------------------------------------
 1/29=2,38=1/1;
 2/12=2,40=1/2;
 3/5=7,11=9,14=-4,16=1,24=10,25=1,30=1,116=-2/1,2,3;
 4/5=1/1;
 5/5=2,8=3,13=1,38=6/2,8;
 8/6=4,9=120000,10=1/1,4;
 9/5=7,6=100,14=2/13;
 6/7=2,8=2,9=2,10=2/1;
 99/5=1,9=1/99;
 ----------------------------------------------
 BEB step 7: high-spin CCSD(T) for cation of o2
 ----------------------------------------------
 Structure from the checkpoint file:  "o2.chk"
 Charge =  1 Multiplicity = 4
 Redundant internal coordinates found in file.
 O,0,-2.024167039,1.50180939,0.
 O,0,-3.238759921,1.50180939,0.
 Recover connectivity data from disk.
                          Input orientation:                          
 ---------------------------------------------------------------------
 Center     Atomic      Atomic             Coordinates (Angstroms)
 Number     Number       Type             X           Y           Z
 ---------------------------------------------------------------------
      1          8           0       -2.024167    1.501809    0.000000
      2          8           0       -3.238760    1.501809    0.000000
 ---------------------------------------------------------------------
 Stoichiometry    O2(1+,4)
 Framework group  D*H[C*(O.O)]
 Deg. of freedom     1
 Full point group                 D*H     NOp   8
 Largest Abelian subgroup         D2H     NOp   8
 Largest concise Abelian subgroup C2      NOp   2
                         Standard orientation:                         
 ---------------------------------------------------------------------
 Center     Atomic      Atomic             Coordinates (Angstroms)
 Number     Number       Type             X           Y           Z
 ---------------------------------------------------------------------
      1          8           0        0.000000    0.000000    0.607296
      2          8           0        0.000000    0.000000   -0.607296
 ---------------------------------------------------------------------
 Rotational constants (GHZ):      0.0000000     42.8354962     42.8354962
 General basis read from cards:  (5D, 7F)
 AO basis set in the form of general basis input (Overlap normalization):
      1 0
 S   7 1.00       0.000000000000
      0.1533000000D+05  0.5198089434D-03
      0.2299000000D+04  0.4020256215D-02
      0.5224000000D+03  0.2071282673D-01
      0.1473000000D+03  0.8101055358D-01
      0.4755000000D+02  0.2359629851D+00
      0.1676000000D+02  0.4426534455D+00
      0.6207000000D+01  0.3570644227D+00
 S   6 1.00       0.000000000000
      0.5224000000D+03 -0.4421150084D-04
      0.1473000000D+03 -0.1225910413D-02
      0.4755000000D+02 -0.1055177248D-01
      0.1676000000D+02 -0.6744526326D-01
      0.6207000000D+01 -0.1711986073D+00
      0.6882000000D+00  0.1073298561D+01
 S   1 1.00       0.000000000000
      0.1752000000D+01  0.1000000000D+01
 S   1 1.00       0.000000000000
      0.2384000000D+00  0.1000000000D+01
 P   3 1.00       0.000000000000
      0.3446000000D+02  0.4116348957D-01
      0.7749000000D+01  0.2577628359D+00
      0.2280000000D+01  0.8024192744D+00
 P   1 1.00       0.000000000000
      0.7156000000D+00  0.1000000000D+01
 P   1 1.00       0.000000000000
      0.2140000000D+00  0.1000000000D+01
 D   1 1.00       0.000000000000
      0.2314000000D+01  0.1000000000D+01
 D   1 1.00       0.000000000000
      0.6450000000D+00  0.1000000000D+01
 F   1 1.00       0.000000000000
      0.1428000000D+01  0.1000000000D+01
 ****
      2 0
 S   7 1.00       0.000000000000
      0.1533000000D+05  0.5198089434D-03
      0.2299000000D+04  0.4020256215D-02
      0.5224000000D+03  0.2071282673D-01
      0.1473000000D+03  0.8101055358D-01
      0.4755000000D+02  0.2359629851D+00
      0.1676000000D+02  0.4426534455D+00
      0.6207000000D+01  0.3570644227D+00
 S   6 1.00       0.000000000000
      0.5224000000D+03 -0.4421150084D-04
      0.1473000000D+03 -0.1225910413D-02
      0.4755000000D+02 -0.1055177248D-01
      0.1676000000D+02 -0.6744526326D-01
      0.6207000000D+01 -0.1711986073D+00
      0.6882000000D+00  0.1073298561D+01
 S   1 1.00       0.000000000000
      0.1752000000D+01  0.1000000000D+01
 S   1 1.00       0.000000000000
      0.2384000000D+00  0.1000000000D+01
 P   3 1.00       0.000000000000
      0.3446000000D+02  0.4116348957D-01
      0.7749000000D+01  0.2577628359D+00
      0.2280000000D+01  0.8024192744D+00
 P   1 1.00       0.000000000000
      0.7156000000D+00  0.1000000000D+01
 P   1 1.00       0.000000000000
      0.2140000000D+00  0.1000000000D+01
 D   1 1.00       0.000000000000
      0.2314000000D+01  0.1000000000D+01
 D   1 1.00       0.000000000000
      0.6450000000D+00  0.1000000000D+01
 F   1 1.00       0.000000000000
      0.1428000000D+01  0.1000000000D+01
 ****

 There are    16 symmetry adapted cartesian basis functions of AG  symmetry.
 There are     3 symmetry adapted cartesian basis functions of B1G symmetry.
 There are     8 symmetry adapted cartesian basis functions of B2G symmetry.
 There are     8 symmetry adapted cartesian basis functions of B3G symmetry.
 There are     3 symmetry adapted cartesian basis functions of AU  symmetry.
 There are    16 symmetry adapted cartesian basis functions of B1U symmetry.
 There are     8 symmetry adapted cartesian basis functions of B2U symmetry.
 There are     8 symmetry adapted cartesian basis functions of B3U symmetry.
 There are    13 symmetry adapted basis functions of AG  symmetry.
 There are     3 symmetry adapted basis functions of B1G symmetry.
 There are     7 symmetry adapted basis functions of B2G symmetry.
 There are     7 symmetry adapted basis functions of B3G symmetry.
 There are     3 symmetry adapted basis functions of AU  symmetry.
 There are    13 symmetry adapted basis functions of B1U symmetry.
 There are     7 symmetry adapted basis functions of B2U symmetry.
 There are     7 symmetry adapted basis functions of B3U symmetry.
    60 basis functions,   104 primitive gaussians,    70 cartesian basis functions
     9 alpha electrons        6 beta electrons
       nuclear repulsion energy        27.8836981945 Hartrees.
 NAtoms=    2 NActive=    2 NUniq=    1 SFac= 4.00D+00 NAtFMM=   60 NAOKFM=F Big=F
 Integral buffers will be    131072 words long.
 Raffenetti 2 integral format.
 Two-electron integral symmetry is turned on.
 One-electron integrals computed using PRISM.
 NBasis=    60 RedAO= T EigKep=  6.46D-03  NBF=    13     3     7     7     3    13     7     7
 NBsUse=    60 1.00D-06 EigRej= -1.00D+00 NBFU=    13     3     7     7     3    13     7     7
 Initial guess from the checkpoint file:  "o2.chk"
 B after Tr=     0.000000    0.000000    0.000000
         Rot=    1.000000    0.000000    0.000000    0.000000 Ang=   0.00 deg.
 Initial guess orbital symmetries:
 Alpha Orbitals:
       Occupied  (SGG) (SGU) (SGG) (SGU) (PIU) (PIU) (SGG) (PIG)
                 (PIG)
       Virtual   (SGU) (PIU) (PIU) (SGU) (SGG) (PIG) (PIG) (SGG)
                 (SGU) (DLTG) (DLTG) (PIU) (PIU) (DLTU) (DLTU)
                 (SGG) (PIG) (PIG) (SGU) (PIU) (PIU) (SGG) (PIG)
                 (PIG) (DLTG) (DLTG) (PIU) (PIU) (SGU) (SGG) (PHIU)
                 (PHIU) (PHIG) (PHIG) (DLTU) (DLTU) (SGU) (DLTG)
                 (DLTG) (DLTU) (DLTU) (PIG) (PIG) (PIU) (PIU) (SGU)
                 (SGG) (PIG) (PIG) (SGG) (SGU)
 Beta  Orbitals:
       Occupied  (SGG) (SGU) (SGG) (SGU) (SGG) (PIU)
       Virtual   (PIU) (PIG) (PIG) (SGU) (SGG) (PIU) (PIU) (SGU)
                 (PIG) (PIG) (SGG) (SGU) (DLTG) (DLTG) (PIU) (PIU)
                 (DLTU) (DLTU) (SGG) (SGU) (PIG) (PIG) (PIU) (PIU)
                 (SGG) (PIG) (PIG) (DLTG) (DLTG) (PIU) (PIU) (SGU)
                 (SGG) (PHIU) (PHIU) (PHIG) (PHIG) (DLTU) (DLTU)
                 (SGU) (DLTG) (DLTG) (DLTU) (DLTU) (PIG) (PIG)
                 (PIU) (PIU) (SGU) (SGG) (PIG) (PIG) (SGG) (SGU)
 Initial guess <Sx>= 0.0000 <Sy>= 0.0000 <Sz>= 1.5000 <S**2>= 3.7763 S= 1.5066
 Keep R1 and R2 ints in memory in symmetry-blocked form, NReq=3667015.
 Requested convergence on RMS density matrix=1.00D-08 within  64 cycles.
 Requested convergence on MAX density matrix=1.00D-06.
 Requested convergence on             energy=1.00D-06.
 No special actions if energy rises.
 SCF Done:  E(UHF) =  -149.153324521     A.U. after   10 cycles
            NFock= 10  Conv=0.17D-08     -V/T= 1.9986
 <Sx>= 0.0000 <Sy>= 0.0000 <Sz>= 1.5000 <S**2>= 3.7830 S= 1.5082
 <L.S>= 0.000000000000E+00
 Annihilation of the first spin contaminant:
 S**2 before annihilation     3.7830,   after     3.7504
 QCSCF skips out because SCF is already converged.
 ExpMin= 2.14D-01 ExpMax= 1.53D+04 ExpMxC= 5.22D+02 IAcc=3 IRadAn=         5 AccDes= 0.00D+00
 HarFok:  IExCor=  205 AccDes= 0.00D+00 IRadAn=         5 IDoV=-2 UseB2=F ITyADJ=14
 ICtDFT= 12500011 ScaDFX=  1.000000  1.000000  1.000000  1.000000
 Range of M.O.s used for correlation:     3    60
 NBasis=    60 NAE=     9 NBE=     6 NFC=     2 NFV=     0
 NROrb=     58 NOA=     7 NOB=     4 NVA=    51 NVB=    54
 Semi-Direct transformation.
 ModeAB=           4 MOrb=             7 LenV=    1048286761
 LASXX=        78741 LTotXX=       78741 LenRXX=      163661
 LTotAB=       84920 MaxLAS=      579768 LenRXY=           0
 NonZer=      242402 LenScr=      785920 LnRSAI=      579768
 LnScr1=     1571840 LExtra=           0 Total=      3101189
 MaxDsk=          -1 SrtSym=           T ITran=            4
 JobTyp=1 Pass  1:  I=   1 to   7.
 (rs|ai) integrals will be sorted in core.
 ModeAB=           4 MOrb=             4 LenV=    1048286761
 LASXX=        47271 LTotXX=       47271 LenRXX=       86518
 LTotAB=       39247 MaxLAS=      331296 LenRXY=           0
 NonZer=      133789 LenScr=      785920 LnRSAI=      331296
 LnScr1=      993280 LExtra=           0 Total=      2197014
 MaxDsk=          -1 SrtSym=           T ITran=            4
 JobTyp=2 Pass  1:  I=   1 to   4.
 (rs|ai) integrals will be sorted in core.
 Spin components of T(2) and E(2):
     alpha-alpha T2 =       0.1036799305D-01 E2=     -0.5776897730D-01
     alpha-beta  T2 =       0.5347446981D-01 E2=     -0.2481132871D+00
     beta-beta   T2 =       0.8750201037D-02 E2=     -0.2851362478D-01
 ANorm=    0.1035660496D+01
 E2 =    -0.3343958892D+00 EUMP2 =    -0.14948772040968D+03
 (S**2,0)=  0.37830D+01           (S**2,1)=  0.37569D+01
 E(PUHF)=      -0.14916117386D+03        E(PMP2)=      -0.14949248615D+03
 Keep R2 and R3 ints in memory in symmetry-blocked form, NReq=3623783.
 Iterations= 100 Convergence= 0.100D-06
 Iteration Nr.   1
 **********************
 DD1Dir will call FoFMem   1 times, MxPair=        84
 NAB=    28 NAA=    21 NBB=     6.
 E(PMP3)=      -0.14950931090D+03
 MP4(R+Q)=  0.71566489D-02
 E3=       -0.19258773D-01        EUMP3=      -0.14950697918D+03
 E4(DQ)=    0.52678541D-03        UMP4(DQ)=   -0.14950645240D+03
 E4(SDQ)=  -0.32762226D-02        UMP4(SDQ)=  -0.14951025540D+03
 DE(Corr)= -0.34651221     E(Corr)=     -149.49983673    
 NORM(A)=   0.10396733D+01
 Iteration Nr.   2
 **********************
 DD1Dir will call FoFMem   1 times, MxPair=        84
 NAB=    28 NAA=    21 NBB=     6.
 DE(Corr)= -0.35508058     E(CORR)=     -149.50840510     Delta=-8.57D-03
 NORM(A)=   0.10434556D+01
 Iteration Nr.   3
 **********************
 DD1Dir will call FoFMem   1 times, MxPair=        84
 NAB=    28 NAA=    21 NBB=     6.
 DE(Corr)= -0.35656306     E(CORR)=     -149.50988758     Delta=-1.48D-03
 NORM(A)=   0.10444578D+01
 Iteration Nr.   4
 **********************
 DD1Dir will call FoFMem   1 times, MxPair=        84
 NAB=    28 NAA=    21 NBB=     6.
 DE(Corr)= -0.35745118     E(CORR)=     -149.51077571     Delta=-8.88D-04
 NORM(A)=   0.10446997D+01
 Iteration Nr.   5
 **********************
 DD1Dir will call FoFMem   1 times, MxPair=        84
 NAB=    28 NAA=    21 NBB=     6.
 DE(Corr)= -0.35753942     E(CORR)=     -149.51086394     Delta=-8.82D-05
 NORM(A)=   0.10447289D+01
 Iteration Nr.   6
 **********************
 DD1Dir will call FoFMem   1 times, MxPair=        84
 NAB=    28 NAA=    21 NBB=     6.
 DE(Corr)= -0.35755196     E(CORR)=     -149.51087648     Delta=-1.25D-05
 NORM(A)=   0.10447268D+01
 Iteration Nr.   7
 **********************
 DD1Dir will call FoFMem   1 times, MxPair=        84
 NAB=    28 NAA=    21 NBB=     6.
 DE(Corr)= -0.35755279     E(CORR)=     -149.51087731     Delta=-8.31D-07
 NORM(A)=   0.10447325D+01
 Iteration Nr.   8
 **********************
 DD1Dir will call FoFMem   1 times, MxPair=        84
 NAB=    28 NAA=    21 NBB=     6.
 DE(Corr)= -0.35755318     E(CORR)=     -149.51087770     Delta=-3.94D-07
 NORM(A)=   0.10447321D+01
 Iteration Nr.   9
 **********************
 DD1Dir will call FoFMem   1 times, MxPair=        84
 NAB=    28 NAA=    21 NBB=     6.
 DE(Corr)= -0.35755372     E(CORR)=     -149.51087824     Delta=-5.34D-07
 NORM(A)=   0.10447325D+01
 Iteration Nr.  10
 **********************
 DD1Dir will call FoFMem   1 times, MxPair=        84
 NAB=    28 NAA=    21 NBB=     6.
 DE(Corr)= -0.35755347     E(CORR)=     -149.51087799     Delta= 2.43D-07
 NORM(A)=   0.10447322D+01
 Iteration Nr.  11
 **********************
 DD1Dir will call FoFMem   1 times, MxPair=        84
 NAB=    28 NAA=    21 NBB=     6.
 DE(Corr)= -0.35755343     E(CORR)=     -149.51087795     Delta= 4.49D-08
 NORM(A)=   0.10447321D+01
 Largest amplitude= 6.98D-02
 Time for triples=        6.07 seconds.
 T4(CCSD)= -0.11918549D-01
 T5(CCSD)=  0.41083570D-03
 CCSD(T)= -0.14952238566D+03

 S**2, projected HF & approx projected MPn energies after annihilation of
 unwanted spin states (see manual for definitions):

 spins       (S**2,0) (S**2,1)    PUHF        PMP2        PMP3        PMP4
 annihilated
 s+1         3.74974  3.75016 -149.161174 -149.492486 -149.509311
 s+1,s+2     3.75000  3.75000 -149.161119 -149.492439 -149.509270
 s+1 to s+3  3.75000  3.75000 -149.161119 -149.492439 -149.509270
 s+1 to s+4  3.75000  3.75000 -149.161119 -149.492439 -149.509270

 Discarding MO integrals.

 **********************************************************************

            Population analysis using the SCF density.

 **********************************************************************

 Orbital symmetries:
 Alpha Orbitals:
       Occupied  (SGG) (SGU) (SGG) (SGU) (PIU) (PIU) (SGG) (PIG)
                 (PIG)
       Virtual   (SGU) (PIU) (PIU) (SGU) (SGG) (PIG) (PIG) (SGG)
                 (DLTG) (DLTG) (SGU) (PIU) (PIU) (DLTU) (DLTU)
                 (SGG) (PIG) (SGU) (PIG) (PIU) (PIU) (SGG) (PIG)
                 (PIG) (?A) (?A) (?B) (?B) (SGU) (?A) (?B) (?B)
                 (PHIG) (PHIG) (?C) (?C) (?C) (DLTG) (DLTG) (?C)
                 (?C) (PIG) (PIG) (PIU) (PIU) (SGU) (SGG) (PIG)
                 (PIG) (SGG) (SGU)
 Beta  Orbitals:
       Occupied  (SGG) (SGU) (SGG) (SGU) (SGG) (?A)
       Virtual   (?A) (?B) (?B) (SGU) (SGU) (?A) (SGG) (?A) (SGG)
                 (?B) (?B) (SGU) (DLTG) (DLTG) (PIU) (PIU) (DLTU)
                 (DLTU) (SGG) (SGU) (PIG) (PIG) (PIU) (PIU) (SGG)
                 (PIG) (PIG) (DLTG) (DLTG) (PIU) (PIU) (SGU) (SGG)
                 (PHIU) (PHIU) (PHIG) (PHIG) (?C) (?C) (?C) (DLTG)
                 (DLTG) (PIG) (PIG) (DLTU) (DLTU) (PIU) (PIU) (SGU)
                 (SGG) (PIG) (PIG) (SGG) (SGU)
 Unable to determine electronic state:  an orbital has unidentified symmetry.
 Alpha  occ. eigenvalues --  -21.24997 -21.24930  -2.22413  -1.67615  -1.36144
 Alpha  occ. eigenvalues --   -1.30771  -1.20704  -1.07446  -1.02357
 Alpha virt. eigenvalues --   -0.03412   0.30152   0.32740   0.36009   0.40151
 Alpha virt. eigenvalues --    0.44067   0.46021   0.47674   1.01000   1.01064
 Alpha virt. eigenvalues --    1.05667   1.07576   1.11366   1.42859   1.42900
 Alpha virt. eigenvalues --    1.95323   2.02580   2.05448   2.05463   3.36097
 Alpha virt. eigenvalues --    3.39763   3.59523   3.63922   3.68036   4.51516
 Alpha virt. eigenvalues --    4.51537   4.55882   4.59671   4.73064   4.82629
 Alpha virt. eigenvalues --    4.84313   4.84319   5.08268   5.08269   5.62024
 Alpha virt. eigenvalues --    5.62047   5.81672   5.98970   5.98991   6.22010
 Alpha virt. eigenvalues --    6.22090   6.25652   6.29334   6.36997   6.40674
 Alpha virt. eigenvalues --    6.66217   7.01925   7.15536   7.18915   7.61886
 Alpha virt. eigenvalues --   12.19459
  Beta  occ. eigenvalues --  -21.17713 -21.17617  -1.99157  -1.39956  -1.12902
  Beta  occ. eigenvalues --   -1.00490
  Beta virt. eigenvalues --   -0.47481  -0.30757  -0.17292   0.06865   0.39245
  Beta virt. eigenvalues --    0.39538   0.41548   0.43311   0.52340   0.54044
  Beta virt. eigenvalues --    0.56637   1.10957   1.11883   1.11943   1.17621
  Beta virt. eigenvalues --    1.19726   1.55674   1.55691   2.02131   2.08566
  Beta virt. eigenvalues --    2.10395   2.10545   3.52794   3.54877   3.63390
  Beta virt. eigenvalues --    3.80457   3.81732   4.57987   4.57988   4.63334
  Beta virt. eigenvalues --    4.63507   4.77626   4.88208   4.93838   4.93839
  Beta virt. eigenvalues --    5.18103   5.18103   5.70548   5.70561   5.87881
  Beta virt. eigenvalues --    6.17123   6.17129   6.37524   6.37593   6.37982
  Beta virt. eigenvalues --    6.37985   6.47892   6.48069   6.71406   7.08042
  Beta virt. eigenvalues --    7.20833   7.22450   7.68568  12.25772
          Condensed to atoms (all electrons):
               1          2
     1  O    7.397395   0.102605
     2  O    0.102605   7.397395
          Atomic-Atomic Spin Densities.
               1          2
     1  O    1.736003  -0.236003
     2  O   -0.236003   1.736003
 Mulliken charges and spin densities:
               1          2
     1  O    0.500000   1.500000
     2  O    0.500000   1.500000
 Sum of Mulliken charges =   1.00000   3.00000
 Mulliken charges and spin densities with hydrogens summed into heavy atoms:
               1          2
     1  O    0.500000   1.500000
     2  O    0.500000   1.500000
 Electronic spatial extent (au):  <R**2>=             37.9568
 Charge=              1.0000 electrons
 Dipole moment (field-independent basis, Debye):
    X=              0.0000    Y=              0.0000    Z=              0.0000  Tot=              0.0000
 Quadrupole moment (field-independent basis, Debye-Ang):
   XX=             -7.3208   YY=             -8.4506   ZZ=             -6.9384
   XY=              0.0000   XZ=              0.0000   YZ=              0.0000
 Traceless Quadrupole moment (field-independent basis, Debye-Ang):
   XX=              0.2491   YY=             -0.8807   ZZ=              0.6315
   XY=              0.0000   XZ=              0.0000   YZ=              0.0000
 Octapole moment (field-independent basis, Debye-Ang**2):
  XXX=              0.0000  YYY=              0.0000  ZZZ=              0.0000  XYY=              0.0000
  XXY=              0.0000  XXZ=              0.0000  XZZ=              0.0000  YZZ=              0.0000
  YYZ=              0.0000  XYZ=              0.0000
 Hexadecapole moment (field-independent basis, Debye-Ang**3):
 XXXX=             -3.8821 YYYY=             -5.1901 ZZZZ=            -22.3531 XXXY=              0.0000
 XXXZ=              0.0000 YYYX=              0.0000 YYYZ=              0.0000 ZZZX=              0.0000
 ZZZY=              0.0000 XXYY=             -1.5119 XXZZ=             -4.3787 YYZZ=             -4.8587
 XXYZ=              0.0000 YYXZ=              0.0000 ZZXY=              0.0000
 N-N= 2.788369819452D+01 E-N=-4.031801517571D+02  KE= 1.493582393348D+02
 Symmetry AG   KE= 6.995009001585D+01
 Symmetry B1G  KE= 4.375320517444D-34
 Symmetry B2G  KE= 3.325822480108D+00
 Symmetry B3G  KE= 3.302424643338D+00
 Symmetry AU   KE= 1.321691631012D-33
 Symmetry B1U  KE= 6.542365533835D+01
 Symmetry B2U  KE= 4.726553017775D+00
 Symmetry B3U  KE= 2.629693839412D+00
 1\1\GINC-GAMBA\SP\UCCSD(T)-FC\Gen\O2(1+,4)\IRIKURA\17-May-2017\0\\# CC
 SD(T,maxcyc=100)/GEN gfinput geom=check scf=xqc guess=check\\BEB step 
 7: high-spin CCSD(T) for cation of o2\\1,4\O,0,-2.024167039,1.50180939
 ,0.\O,0,-3.238759921,1.50180939,0.\\Version=ES64L-G09RevD.01\HF=-149.1
 533245\MP2=-149.4877204\MP3=-149.5069792\MP4D=-149.513609\MP4DQ=-149.5
 064524\PUHF=-149.1611739\PMP2-0=-149.4924861\PMP3-0=-149.5093109\MP4SD
 Q=-149.5102554\CCSD=-149.5108779\CCSD(T)=-149.5223857\S2=3.782965\S2-1
 =3.756858\S2A=3.75037\RMSD=1.668e-09\PG=D*H [C*(O1.O1)]\\@


 IN THE UNIVERSE THE DIFFICULT THINGS ARE DONE AS IF THEY WERE EASY.

                                                          -- LAO-TSU
 Job cpu time:       0 days  0 hours  0 minutes 31.9 seconds.
 File lengths (MBytes):  RWF=     31 Int=      0 D2E=      0 Chk=      1 Scr=      1
 Normal termination of Gaussian 09 at Wed May 17 14:07:02 2017.
