 Entering Gaussian System, Link 0=g09
 Initial command:
 /usr/local/apps/g09/l1.exe "/wrk/irikura/Gau-704.inp" -scrdir="/wrk/irikura/"
 Entering Link 1 = /usr/local/apps/g09/l1.exe PID=       706.
  
 Copyright (c) 1988,1990,1992,1993,1995,1998,2003,2009,2013,
            Gaussian, Inc.  All Rights Reserved.
  
 This is part of the Gaussian(R) 09 program.  It is based on
 the Gaussian(R) 03 system (copyright 2003, Gaussian, Inc.),
 the Gaussian(R) 98 system (copyright 1998, Gaussian, Inc.),
 the Gaussian(R) 94 system (copyright 1995, Gaussian, Inc.),
 the Gaussian 92(TM) system (copyright 1992, Gaussian, Inc.),
 the Gaussian 90(TM) system (copyright 1990, Gaussian, Inc.),
 the Gaussian 88(TM) system (copyright 1988, Gaussian, Inc.),
 the Gaussian 86(TM) system (copyright 1986, Carnegie Mellon
 University), and the Gaussian 82(TM) system (copyright 1983,
 Carnegie Mellon University). Gaussian is a federally registered
 trademark of Gaussian, Inc.
  
 This software contains proprietary and confidential information,
 including trade secrets, belonging to Gaussian, Inc.
  
 This software is provided under written license and may be
 used, copied, transmitted, or stored only in accord with that
 written license.
  
 The following legend is applicable only to US Government
 contracts under FAR:
  
                    RESTRICTED RIGHTS LEGEND
  
 Use, reproduction and disclosure by the US Government is
 subject to restrictions as set forth in subparagraphs (a)
 and (c) of the Commercial Computer Software - Restricted
 Rights clause in FAR 52.227-19.
  
 Gaussian, Inc.
 340 Quinnipiac St., Bldg. 40, Wallingford CT 06492
  
  
 ---------------------------------------------------------------
 Warning -- This program may not be used in any manner that
 competes with the business of Gaussian, Inc. or will provide
 assistance to any competitor of Gaussian, Inc.  The licensee
 of this program is prohibited from giving any competitor of
 Gaussian, Inc. access to this program.  By using this program,
 the user acknowledges that Gaussian, Inc. is engaged in the
 business of creating and licensing software in the field of
 computational chemistry and represents and warrants to the
 licensee that it is not a competitor of Gaussian, Inc. and that
 it will not use this program in any manner prohibited above.
 ---------------------------------------------------------------
  

 Cite this work as:
 Gaussian 09, Revision D.01,
 M. J. Frisch, G. W. Trucks, H. B. Schlegel, G. E. Scuseria, 
 M. A. Robb, J. R. Cheeseman, G. Scalmani, V. Barone, B. Mennucci, 
 G. A. Petersson, H. Nakatsuji, M. Caricato, X. Li, H. P. Hratchian, 
 A. F. Izmaylov, J. Bloino, G. Zheng, J. L. Sonnenberg, M. Hada, 
 M. Ehara, K. Toyota, R. Fukuda, J. Hasegawa, M. Ishida, T. Nakajima, 
 Y. Honda, O. Kitao, H. Nakai, T. Vreven, J. A. Montgomery, Jr., 
 J. E. Peralta, F. Ogliaro, M. Bearpark, J. J. Heyd, E. Brothers, 
 K. N. Kudin, V. N. Staroverov, T. Keith, R. Kobayashi, J. Normand, 
 K. Raghavachari, A. Rendell, J. C. Burant, S. S. Iyengar, J. Tomasi, 
 M. Cossi, N. Rega, J. M. Millam, M. Klene, J. E. Knox, J. B. Cross, 
 V. Bakken, C. Adamo, J. Jaramillo, R. Gomperts, R. E. Stratmann, 
 O. Yazyev, A. J. Austin, R. Cammi, C. Pomelli, J. W. Ochterski, 
 R. L. Martin, K. Morokuma, V. G. Zakrzewski, G. A. Voth, 
 P. Salvador, J. J. Dannenberg, S. Dapprich, A. D. Daniels, 
 O. Farkas, J. B. Foresman, J. V. Ortiz, J. Cioslowski, 
 and D. J. Fox, Gaussian, Inc., Wallingford CT, 2013.
 
 ******************************************
 Gaussian 09:  ES64L-G09RevD.01 24-Apr-2013
                17-May-2017 
 ******************************************
 %chk=o2.chk
 %nprocs=4
 Will use up to    4 processors via shared memory.
 %mem=1000mw
 ---------------------------------------------------
 # CCSD(T,maxcyc=100)/GEN gfinput geom=check scf=xqc
 ---------------------------------------------------
 1/29=2,38=1/1;
 2/12=2,40=1/2;
 3/5=7,11=9,14=-4,16=1,24=10,25=1,30=1/1,2,3;
 4//1;
 5/5=2,8=3,13=1,38=5/2,8;
 8/6=4,9=120000,10=1/1,4;
 9/5=7,6=100,14=2/13;
 6/7=2,8=2,9=2,10=2/1;
 99/5=1,9=1/99;
 ----------------------------------
 BEB step 6: CCSD(T) for neutral o2
 ----------------------------------
 Structure from the checkpoint file:  "o2.chk"
 Charge =  0 Multiplicity = 3
 Redundant internal coordinates found in file.
 O,0,-2.024167039,1.50180939,0.
 O,0,-3.238759921,1.50180939,0.
 Recover connectivity data from disk.
                          Input orientation:                          
 ---------------------------------------------------------------------
 Center     Atomic      Atomic             Coordinates (Angstroms)
 Number     Number       Type             X           Y           Z
 ---------------------------------------------------------------------
      1          8           0       -2.024167    1.501809    0.000000
      2          8           0       -3.238760    1.501809    0.000000
 ---------------------------------------------------------------------
 Stoichiometry    O2(3)
 Framework group  D*H[C*(O.O)]
 Deg. of freedom     1
 Full point group                 D*H     NOp   8
 Largest Abelian subgroup         D2H     NOp   8
 Largest concise Abelian subgroup C2      NOp   2
                         Standard orientation:                         
 ---------------------------------------------------------------------
 Center     Atomic      Atomic             Coordinates (Angstroms)
 Number     Number       Type             X           Y           Z
 ---------------------------------------------------------------------
      1          8           0        0.000000    0.000000    0.607296
      2          8           0        0.000000    0.000000   -0.607296
 ---------------------------------------------------------------------
 Rotational constants (GHZ):      0.0000000     42.8354962     42.8354962
 General basis read from cards:  (5D, 7F)
 AO basis set in the form of general basis input (Overlap normalization):
      1 0
 S   7 1.00       0.000000000000
      0.1533000000D+05  0.5198089434D-03
      0.2299000000D+04  0.4020256215D-02
      0.5224000000D+03  0.2071282673D-01
      0.1473000000D+03  0.8101055358D-01
      0.4755000000D+02  0.2359629851D+00
      0.1676000000D+02  0.4426534455D+00
      0.6207000000D+01  0.3570644227D+00
 S   6 1.00       0.000000000000
      0.5224000000D+03 -0.4421150084D-04
      0.1473000000D+03 -0.1225910413D-02
      0.4755000000D+02 -0.1055177248D-01
      0.1676000000D+02 -0.6744526326D-01
      0.6207000000D+01 -0.1711986073D+00
      0.6882000000D+00  0.1073298561D+01
 S   1 1.00       0.000000000000
      0.1752000000D+01  0.1000000000D+01
 S   1 1.00       0.000000000000
      0.2384000000D+00  0.1000000000D+01
 P   3 1.00       0.000000000000
      0.3446000000D+02  0.4116348957D-01
      0.7749000000D+01  0.2577628359D+00
      0.2280000000D+01  0.8024192744D+00
 P   1 1.00       0.000000000000
      0.7156000000D+00  0.1000000000D+01
 P   1 1.00       0.000000000000
      0.2140000000D+00  0.1000000000D+01
 D   1 1.00       0.000000000000
      0.2314000000D+01  0.1000000000D+01
 D   1 1.00       0.000000000000
      0.6450000000D+00  0.1000000000D+01
 F   1 1.00       0.000000000000
      0.1428000000D+01  0.1000000000D+01
 ****
      2 0
 S   7 1.00       0.000000000000
      0.1533000000D+05  0.5198089434D-03
      0.2299000000D+04  0.4020256215D-02
      0.5224000000D+03  0.2071282673D-01
      0.1473000000D+03  0.8101055358D-01
      0.4755000000D+02  0.2359629851D+00
      0.1676000000D+02  0.4426534455D+00
      0.6207000000D+01  0.3570644227D+00
 S   6 1.00       0.000000000000
      0.5224000000D+03 -0.4421150084D-04
      0.1473000000D+03 -0.1225910413D-02
      0.4755000000D+02 -0.1055177248D-01
      0.1676000000D+02 -0.6744526326D-01
      0.6207000000D+01 -0.1711986073D+00
      0.6882000000D+00  0.1073298561D+01
 S   1 1.00       0.000000000000
      0.1752000000D+01  0.1000000000D+01
 S   1 1.00       0.000000000000
      0.2384000000D+00  0.1000000000D+01
 P   3 1.00       0.000000000000
      0.3446000000D+02  0.4116348957D-01
      0.7749000000D+01  0.2577628359D+00
      0.2280000000D+01  0.8024192744D+00
 P   1 1.00       0.000000000000
      0.7156000000D+00  0.1000000000D+01
 P   1 1.00       0.000000000000
      0.2140000000D+00  0.1000000000D+01
 D   1 1.00       0.000000000000
      0.2314000000D+01  0.1000000000D+01
 D   1 1.00       0.000000000000
      0.6450000000D+00  0.1000000000D+01
 F   1 1.00       0.000000000000
      0.1428000000D+01  0.1000000000D+01
 ****

 There are    16 symmetry adapted cartesian basis functions of AG  symmetry.
 There are     3 symmetry adapted cartesian basis functions of B1G symmetry.
 There are     8 symmetry adapted cartesian basis functions of B2G symmetry.
 There are     8 symmetry adapted cartesian basis functions of B3G symmetry.
 There are     3 symmetry adapted cartesian basis functions of AU  symmetry.
 There are    16 symmetry adapted cartesian basis functions of B1U symmetry.
 There are     8 symmetry adapted cartesian basis functions of B2U symmetry.
 There are     8 symmetry adapted cartesian basis functions of B3U symmetry.
 There are    13 symmetry adapted basis functions of AG  symmetry.
 There are     3 symmetry adapted basis functions of B1G symmetry.
 There are     7 symmetry adapted basis functions of B2G symmetry.
 There are     7 symmetry adapted basis functions of B3G symmetry.
 There are     3 symmetry adapted basis functions of AU  symmetry.
 There are    13 symmetry adapted basis functions of B1U symmetry.
 There are     7 symmetry adapted basis functions of B2U symmetry.
 There are     7 symmetry adapted basis functions of B3U symmetry.
    60 basis functions,   104 primitive gaussians,    70 cartesian basis functions
     9 alpha electrons        7 beta electrons
       nuclear repulsion energy        27.8836981945 Hartrees.
 NAtoms=    2 NActive=    2 NUniq=    1 SFac= 4.00D+00 NAtFMM=   60 NAOKFM=F Big=F
 Integral buffers will be    131072 words long.
 Raffenetti 2 integral format.
 Two-electron integral symmetry is turned on.
 One-electron integrals computed using PRISM.
 NBasis=    60 RedAO= T EigKep=  6.46D-03  NBF=    13     3     7     7     3    13     7     7
 NBsUse=    60 1.00D-06 EigRej= -1.00D+00 NBFU=    13     3     7     7     3    13     7     7
 ExpMin= 2.14D-01 ExpMax= 1.53D+04 ExpMxC= 5.22D+02 IAcc=1 IRadAn=         1 AccDes= 0.00D+00
 Harris functional with IExCor=  205 and IRadAn=       1 diagonalized for initial guess.
 HarFok:  IExCor=  205 AccDes= 0.00D+00 IRadAn=         1 IDoV= 1 UseB2=F ITyADJ=14
 ICtDFT=  3500011 ScaDFX=  1.000000  1.000000  1.000000  1.000000
 FoFCou: FMM=F IPFlag=           0 FMFlag=      100000 FMFlg1=           0
         NFxFlg=           0 DoJE=T BraDBF=F KetDBF=T FulRan=T
         wScrn=  0.000000 ICntrl=     500 IOpCl=  0 I1Cent=   200000004 NGrid=           0
         NMat0=    1 NMatS0=      1 NMatT0=    0 NMatD0=    1 NMtDS0=    0 NMtDT0=    0
 Petite list used in FoFCou.
 Initial guess orbital symmetries:
 Alpha Orbitals:
       Occupied  (SGU) (SGG) (SGG) (SGU) (SGG) (PIU) (PIU) (PIG)
                 (PIG)
       Virtual   (SGU) (SGU) (PIU) (PIU) (SGG) (PIG) (PIG) (SGG)
                 (DLTG) (DLTG) (SGU) (PIU) (PIU) (DLTU) (DLTU)
                 (SGG) (SGU) (PIG) (PIG) (PIU) (PIU) (SGG) (PIG)
                 (PIG) (DLTG) (DLTG) (PIU) (PIU) (SGU) (SGG) (PHIU)
                 (PHIU) (PHIG) (PHIG) (DLTU) (DLTU) (SGU) (DLTG)
                 (DLTG) (DLTU) (DLTU) (PIG) (PIG) (PIU) (PIU) (SGU)
                 (SGG) (PIG) (PIG) (SGG) (SGU)
 Beta  Orbitals:
       Occupied  (SGU) (SGG) (SGG) (SGU) (SGG) (PIU) (PIU)
       Virtual   (PIG) (PIG) (SGU) (SGU) (PIU) (PIU) (SGG) (PIG)
                 (PIG) (SGG) (DLTG) (DLTG) (SGU) (PIU) (PIU) (DLTU)
                 (DLTU) (SGG) (SGU) (PIG) (PIG) (PIU) (PIU) (SGG)
                 (PIG) (PIG) (DLTG) (DLTG) (PIU) (PIU) (SGU) (SGG)
                 (PHIU) (PHIU) (PHIG) (PHIG) (DLTU) (DLTU) (SGU)
                 (DLTG) (DLTG) (DLTU) (DLTU) (PIG) (PIG) (PIU)
                 (PIU) (SGU) (SGG) (PIG) (PIG) (SGG) (SGU)
 The electronic state of the initial guess is 3-SGG.
 Initial guess <Sx>= 0.0000 <Sy>= 0.0000 <Sz>= 1.0000 <S**2>= 2.0000 S= 1.0000
 Keep R1 and R2 ints in memory in symmetry-blocked form, NReq=3667015.
 Requested convergence on RMS density matrix=1.00D-08 within  64 cycles.
 Requested convergence on MAX density matrix=1.00D-06.
 Requested convergence on             energy=1.00D-06.
 No special actions if energy rises.
 SCF Done:  E(UHF) =  -149.673861154     A.U. after   10 cycles
            NFock= 10  Conv=0.57D-08     -V/T= 2.0017
 <Sx>= 0.0000 <Sy>= 0.0000 <Sz>= 1.0000 <S**2>= 2.0432 S= 1.0143
 <L.S>= 0.000000000000E+00
 Annihilation of the first spin contaminant:
 S**2 before annihilation     2.0432,   after     2.0009
 QCSCF skips out because SCF is already converged.
 ExpMin= 2.14D-01 ExpMax= 1.53D+04 ExpMxC= 5.22D+02 IAcc=3 IRadAn=         5 AccDes= 0.00D+00
 HarFok:  IExCor=  205 AccDes= 0.00D+00 IRadAn=         5 IDoV=-2 UseB2=F ITyADJ=14
 ICtDFT= 12500011 ScaDFX=  1.000000  1.000000  1.000000  1.000000
 Range of M.O.s used for correlation:     3    60
 NBasis=    60 NAE=     9 NBE=     7 NFC=     2 NFV=     0
 NROrb=     58 NOA=     7 NOB=     5 NVA=    51 NVB=    53
 Semi-Direct transformation.
 ModeAB=           4 MOrb=             7 LenV=    1048287280
 LASXX=        78741 LTotXX=       78741 LenRXX=      163661
 LTotAB=       84920 MaxLAS=      579768 LenRXY=           0
 NonZer=      242402 LenScr=      785920 LnRSAI=      579768
 LnScr1=     1571840 LExtra=           0 Total=      3101189
 MaxDsk=          -1 SrtSym=           T ITran=            4
 JobTyp=1 Pass  1:  I=   1 to   7.
 (rs|ai) integrals will be sorted in core.
 ModeAB=           4 MOrb=             5 LenV=    1048287280
 LASXX=        58091 LTotXX=       58091 LenRXX=      106323
 LTotAB=       48232 MaxLAS=      414120 LenRXY=           0
 NonZer=      164414 LenScr=      785920 LnRSAI=      414120
 LnScr1=     1242112 LExtra=           0 Total=      2548475
 MaxDsk=          -1 SrtSym=           T ITran=            4
 JobTyp=2 Pass  1:  I=   1 to   5.
 (rs|ai) integrals will be sorted in core.
 Spin components of T(2) and E(2):
     alpha-alpha T2 =       0.1149823634D-01 E2=     -0.5945920929D-01
     alpha-beta  T2 =       0.7247548956D-01 E2=     -0.3096131966D+00
     beta-beta   T2 =       0.2638477510D-01 E2=     -0.6708773740D-01
 ANorm=    0.1053735499D+01
 E2 =    -0.4361601433D+00 EUMP2 =    -0.15011002129714D+03
 (S**2,0)=  0.20432D+01           (S**2,1)=  0.20088D+01
 E(PUHF)=      -0.14968508352D+03        E(PMP2)=      -0.15011683707D+03
 Keep R2 and R3 ints in memory in symmetry-blocked form, NReq=3623783.
 Iterations= 100 Convergence= 0.100D-06
 Iteration Nr.   1
 **********************
 DD1Dir will call FoFMem   1 times, MxPair=       102
 NAB=    35 NAA=    21 NBB=    10.
 E(PMP3)=      -0.15010637031D+03
 MP4(R+Q)=  0.95930727D-02
 E3=        0.65400585D-02        EUMP3=      -0.15010348124D+03
 E4(DQ)=   -0.17475243D-02        UMP4(DQ)=   -0.15010522876D+03
 E4(SDQ)=  -0.95088608D-02        UMP4(SDQ)=  -0.15011299010D+03
 DE(Corr)= -0.42001388     E(Corr)=     -150.09387503    
 NORM(A)=   0.10498796D+01
 Iteration Nr.   2
 **********************
 DD1Dir will call FoFMem   1 times, MxPair=       102
 NAB=    35 NAA=    21 NBB=    10.
 DE(Corr)= -0.43605535     E(CORR)=     -150.10991650     Delta=-1.60D-02
 NORM(A)=   0.10552910D+01
 Iteration Nr.   3
 **********************
 DD1Dir will call FoFMem   1 times, MxPair=       102
 NAB=    35 NAA=    21 NBB=    10.
 DE(Corr)= -0.43583603     E(CORR)=     -150.10969718     Delta= 2.19D-04
 NORM(A)=   0.10565311D+01
 Iteration Nr.   4
 **********************
 DD1Dir will call FoFMem   1 times, MxPair=       102
 NAB=    35 NAA=    21 NBB=    10.
 DE(Corr)= -0.43705078     E(CORR)=     -150.11091194     Delta=-1.21D-03
 NORM(A)=   0.10567837D+01
 Iteration Nr.   5
 **********************
 DD1Dir will call FoFMem   1 times, MxPair=       102
 NAB=    35 NAA=    21 NBB=    10.
 DE(Corr)= -0.43712392     E(CORR)=     -150.11098508     Delta=-7.31D-05
 NORM(A)=   0.10568108D+01
 Iteration Nr.   6
 **********************
 DD1Dir will call FoFMem   1 times, MxPair=       102
 NAB=    35 NAA=    21 NBB=    10.
 DE(Corr)= -0.43712966     E(CORR)=     -150.11099082     Delta=-5.74D-06
 NORM(A)=   0.10568063D+01
 Iteration Nr.   7
 **********************
 DD1Dir will call FoFMem   1 times, MxPair=       102
 NAB=    35 NAA=    21 NBB=    10.
 DE(Corr)= -0.43713053     E(CORR)=     -150.11099168     Delta=-8.64D-07
 NORM(A)=   0.10568079D+01
 Iteration Nr.   8
 **********************
 DD1Dir will call FoFMem   1 times, MxPair=       102
 NAB=    35 NAA=    21 NBB=    10.
 DE(Corr)= -0.43712946     E(CORR)=     -150.11099061     Delta= 1.07D-06
 NORM(A)=   0.10568074D+01
 Iteration Nr.   9
 **********************
 DD1Dir will call FoFMem   1 times, MxPair=       102
 NAB=    35 NAA=    21 NBB=    10.
 DE(Corr)= -0.43713023     E(CORR)=     -150.11099138     Delta=-7.72D-07
 NORM(A)=   0.10568077D+01
 Iteration Nr.  10
 **********************
 DD1Dir will call FoFMem   1 times, MxPair=       102
 NAB=    35 NAA=    21 NBB=    10.
 DE(Corr)= -0.43713008     E(CORR)=     -150.11099123     Delta= 1.49D-07
 NORM(A)=   0.10568077D+01
 Iteration Nr.  11
 **********************
 DD1Dir will call FoFMem   1 times, MxPair=       102
 NAB=    35 NAA=    21 NBB=    10.
 DE(Corr)= -0.43713016     E(CORR)=     -150.11099132     Delta=-8.39D-08
 NORM(A)=   0.10568077D+01
 Largest amplitude= 9.49D-02
 Time for triples=        6.85 seconds.
 T4(CCSD)= -0.19017804D-01
 T5(CCSD)=  0.98051178D-03
 CCSD(T)= -0.15012902861D+03

 S**2, projected HF & approx projected MPn energies after annihilation of
 unwanted spin states (see manual for definitions):

 spins       (S**2,0) (S**2,1)    PUHF        PMP2        PMP3        PMP4
 annihilated
 s+1         1.99937  2.00038 -149.685084 -150.116837 -150.106370
 s+1,s+2     2.00000  2.00000 -149.684951 -150.116720 -150.106260
 s+1 to s+3  2.00000  2.00000 -149.684952 -150.116720 -150.106259
 s+1 to s+4  2.00000  2.00000 -149.684952 -150.116720 -150.106259
 s+1 to s+5  2.00000  2.00000 -149.684952

 Discarding MO integrals.

 **********************************************************************

            Population analysis using the SCF density.

 **********************************************************************

 Orbital symmetries:
 Alpha Orbitals:
       Occupied  (SGG) (SGU) (SGG) (SGU) (PIU) (PIU) (SGG) (PIG)
                 (PIG)
       Virtual   (SGU) (PIU) (PIU) (SGU) (SGG) (PIG) (PIG) (SGG)
                 (SGU) (DLTG) (DLTG) (PIU) (PIU) (DLTU) (DLTU)
                 (SGG) (PIG) (PIG) (SGU) (PIU) (PIU) (SGG) (PIG)
                 (PIG) (DLTG) (DLTG) (PIU) (PIU) (SGU) (SGG) (PHIU)
                 (PHIU) (PHIG) (PHIG) (DLTU) (DLTU) (SGU) (DLTG)
                 (DLTG) (DLTU) (DLTU) (PIG) (PIG) (PIU) (PIU) (SGU)
                 (SGG) (PIG) (PIG) (SGG) (SGU)
 Beta  Orbitals:
       Occupied  (SGG) (SGU) (SGG) (SGU) (SGG) (PIU) (PIU)
       Virtual   (PIG) (PIG) (SGU) (SGG) (PIU) (PIU) (SGU) (PIG)
                 (PIG) (SGG) (SGU) (DLTG) (DLTG) (PIU) (PIU) (DLTU)
                 (DLTU) (SGG) (SGU) (PIG) (PIG) (PIU) (PIU) (SGG)
                 (PIG) (PIG) (DLTG) (DLTG) (PIU) (PIU) (SGU) (SGG)
                 (PHIU) (PHIU) (PHIG) (PHIG) (DLTU) (DLTU) (SGU)
                 (DLTG) (DLTG) (DLTU) (DLTU) (PIG) (PIG) (PIU)
                 (PIU) (SGU) (SGG) (PIG) (PIG) (SGG) (SGU)
 The electronic state is 3-SGG.
 Alpha  occ. eigenvalues --  -20.75398 -20.75335  -1.70840  -1.20667  -0.83829
 Alpha  occ. eigenvalues --   -0.83829  -0.76019  -0.55721  -0.55721
 Alpha virt. eigenvalues --    0.37053   0.68146   0.68146   0.72823   0.73123
 Alpha virt. eigenvalues --    0.79124   0.79124   0.87931   1.42960   1.44961
 Alpha virt. eigenvalues --    1.44961   1.53467   1.53467   1.85596   1.85596
 Alpha virt. eigenvalues --    2.37150   2.44896   2.44896   2.44932   3.84727
 Alpha virt. eigenvalues --    3.84727   4.05655   4.13240   4.13240   4.98274
 Alpha virt. eigenvalues --    4.98274   5.05163   5.05163   5.17871   5.30535
 Alpha virt. eigenvalues --    5.31537   5.31537   5.55397   5.55397   6.10059
 Alpha virt. eigenvalues --    6.10059   6.25253   6.48561   6.48561   6.70024
 Alpha virt. eigenvalues --    6.70024   6.75789   6.75789   6.86370   6.86370
 Alpha virt. eigenvalues --    7.13758   7.48624   7.62686   7.62686   8.07252
 Alpha virt. eigenvalues --   12.67661
  Beta  occ. eigenvalues --  -20.69941 -20.69824  -1.57675  -0.99543  -0.70029
  Beta  occ. eigenvalues --   -0.57170  -0.57170
  Beta virt. eigenvalues --    0.10654   0.10654   0.42662   0.74201   0.75104
  Beta virt. eigenvalues --    0.75104   0.77128   0.88367   0.88367   0.89651
  Beta virt. eigenvalues --    1.47106   1.50286   1.50286   1.59224   1.59224
  Beta virt. eigenvalues --    1.95247   1.95247   2.42116   2.47348   2.49880
  Beta virt. eigenvalues --    2.49880   3.96485   3.96485   4.08086   4.24313
  Beta virt. eigenvalues --    4.24313   5.02179   5.02179   5.08467   5.08467
  Beta virt. eigenvalues --    5.21307   5.34290   5.37960   5.37960   5.62435
  Beta virt. eigenvalues --    5.62435   6.15716   6.15716   6.29927   6.61720
  Beta virt. eigenvalues --    6.61720   6.82117   6.82117   6.83099   6.83099
  Beta virt. eigenvalues --    6.93094   6.93094   7.17554   7.53120   7.65943
  Beta virt. eigenvalues --    7.65943   8.12263  12.72196
          Condensed to atoms (all electrons):
               1          2
     1  O    7.784932   0.215068
     2  O    0.215068   7.784932
          Atomic-Atomic Spin Densities.
               1          2
     1  O    1.403811  -0.403811
     2  O   -0.403811   1.403811
 Mulliken charges and spin densities:
               1          2
     1  O    0.000000   1.000000
     2  O    0.000000   1.000000
 Sum of Mulliken charges =   0.00000   2.00000
 Mulliken charges and spin densities with hydrogens summed into heavy atoms:
               1          2
     1  O    0.000000   1.000000
     2  O    0.000000   1.000000
 Electronic spatial extent (au):  <R**2>=             43.5245
 Charge=              0.0000 electrons
 Dipole moment (field-independent basis, Debye):
    X=              0.0000    Y=              0.0000    Z=              0.0000  Tot=              0.0000
 Quadrupole moment (field-independent basis, Debye-Ang):
   XX=             -9.9462   YY=             -9.9462   ZZ=            -10.3060
   XY=              0.0000   XZ=              0.0000   YZ=              0.0000
 Traceless Quadrupole moment (field-independent basis, Debye-Ang):
   XX=              0.1199   YY=              0.1199   ZZ=             -0.2399
   XY=              0.0000   XZ=              0.0000   YZ=              0.0000
 Octapole moment (field-independent basis, Debye-Ang**2):
  XXX=              0.0000  YYY=              0.0000  ZZZ=              0.0000  XYY=              0.0000
  XXY=              0.0000  XXZ=              0.0000  XZZ=              0.0000  YZZ=              0.0000
  YYZ=              0.0000  XYZ=              0.0000
 Hexadecapole moment (field-independent basis, Debye-Ang**3):
 XXXX=             -6.8544 YYYY=             -6.8544 ZZZZ=            -28.2031 XXXY=              0.0000
 XXXZ=              0.0000 YYYX=              0.0000 YYYZ=              0.0000 ZZZX=              0.0000
 ZZZY=              0.0000 XXYY=             -2.2848 XXZZ=             -6.0358 YYZZ=             -6.0358
 XXYZ=              0.0000 YYXZ=              0.0000 ZZXY=              0.0000
 N-N= 2.788369819452D+01 E-N=-4.107461320772D+02  KE= 1.494181226986D+02
 Symmetry AG   KE= 6.945298559041D+01
 Symmetry B1G  KE= 4.591720820700D-34
 Symmetry B2G  KE= 3.076953857762D+00
 Symmetry B3G  KE= 3.076953857762D+00
 Symmetry AU   KE= 1.497321129481D-33
 Symmetry B1U  KE= 6.504482696693D+01
 Symmetry B2U  KE= 4.383201212874D+00
 Symmetry B3U  KE= 4.383201212874D+00
 1\1\GINC-GAMBA\SP\UCCSD(T)-FC\Gen\O2(3)\IRIKURA\17-May-2017\0\\# CCSD(
 T,maxcyc=100)/GEN gfinput geom=check scf=xqc\\BEB step 6: CCSD(T) for 
 neutral o2\\0,3\O,0,-2.024167039,1.50180939,0.\O,0,-3.238759921,1.5018
 0939,0.\\Version=ES64L-G09RevD.01\State=3-SGG\HF=-149.6738612\MP2=-150
 .1100213\MP3=-150.1034812\MP4D=-150.1148218\MP4DQ=-150.1052288\PUHF=-1
 49.6850835\PMP2-0=-150.1168371\PMP3-0=-150.1063703\MP4SDQ=-150.1129901
 \CCSD=-150.1109913\CCSD(T)=-150.1290286\S2=2.043214\S2-1=2.008784\S2A=
 2.000948\RMSD=5.655e-09\PG=D*H [C*(O1.O1)]\\@


 The earth never tires,
 The earth is rude, silent, incomprehensible at first,
 Nature is rude and incomprehensible at first,
 Be not discouraged, keep on,
 There are divine things well envelop'd,
 I swear to you there are divine things more beautiful than words can tell.
                                 -- Walt Whitman
 Job cpu time:       0 days  0 hours  0 minutes 33.1 seconds.
 File lengths (MBytes):  RWF=     31 Int=      0 D2E=      0 Chk=      1 Scr=      1
 Normal termination of Gaussian 09 at Wed May 17 14:06:53 2017.
